M 10.00000 0 (0.00, 0.00, 0.00), (10.00, 10.00), 20.00
M 10.00000 6 (0.00, 0.00, 0.00), (310.00, 10.00), 20.00
M 10.00000 1 (0.00, 0.00, 0.00), (10.00, 160.00), 20.00
M 10.00000 4 (0.00, 0.00, 0.00), (160.00, 160.00), 20.00
M 10.00000 2 (0.00, 0.00, 0.00), (10.00, 310.00), 20.00
M 10.00000 5 (0.00, 0.00, 0.00), (310.00, 310.00), 20.00
M 10.00000 3 (0.00, 0.00, 0.00), (10.00, 460.00), 20.00
s 30.000000000 _0_ AGT  --- 0 tcp 40 [0 0 0 0] ------- [0:0 5:0 32 0] [0 0] 0 0
r 30.000000000 _0_ RTR  --- 0 tcp 40 [0 0 0 0] ------- [0:0 5:0 32 0] [0 0] 0 0
s 30.000000000 _1_ AGT  --- 1 tcp 40 [0 0 0 0] ------- [1:0 5:1 32 0] [0 0] 0 0
r 30.000000000 _1_ RTR  --- 1 tcp 40 [0 0 0 0] ------- [1:0 5:1 32 0] [0 0] 0 0
s 30.000000000 _2_ AGT  --- 2 tcp 40 [0 0 0 0] ------- [2:0 6:0 32 0] [0 0] 0 0
r 30.000000000 _2_ RTR  --- 2 tcp 40 [0 0 0 0] ------- [2:0 6:0 32 0] [0 0] 0 0
s 30.000000000 _3_ AGT  --- 3 tcp 40 [0 0 0 0] ------- [3:0 6:1 32 0] [0 0] 0 0
r 30.000000000 _3_ RTR  --- 3 tcp 40 [0 0 0 0] ------- [3:0 6:1 32 0] [0 0] 0 0
s 30.000000000 _4_ AGT  --- 4 tcp 40 [0 0 0 0] ------- [4:0 6:2 32 0] [0 0] 0 0
r 30.000000000 _4_ RTR  --- 4 tcp 40 [0 0 0 0] ------- [4:0 6:2 32 0] [0 0] 0 0
s 30.000000000 _5_ AGT  --- 5 tcp 40 [0 0 0 0] ------- [5:2 6:3 32 0] [0 0] 0 0
r 30.000000000 _5_ RTR  --- 5 tcp 40 [0 0 0 0] ------- [5:2 6:3 32 0] [0 0] 0 0
s 30.000000000 _0_ RTR  --- 0 AODV 48 [0 0 0 0] ------- [0:255 -1:255 30 0] [0x2 1 1 [5 0] [0 4]] (REQUEST)
s 30.000000000 _1_ RTR  --- 0 AODV 48 [0 0 0 0] ------- [1:255 -1:255 30 0] [0x2 1 1 [5 0] [1 4]] (REQUEST)
s 30.000000000 _2_ RTR  --- 0 AODV 48 [0 0 0 0] ------- [2:255 -1:255 30 0] [0x2 1 1 [6 0] [2 4]] (REQUEST)
s 30.000000000 _3_ RTR  --- 0 AODV 48 [0 0 0 0] ------- [3:255 -1:255 30 0] [0x2 1 1 [6 0] [3 4]] (REQUEST)
s 30.000000000 _4_ RTR  --- 0 AODV 48 [0 0 0 0] ------- [4:255 -1:255 30 0] [0x2 1 1 [6 0] [4 4]] (REQUEST)
s 30.000000000 _5_ RTR  --- 0 AODV 48 [0 0 0 0] ------- [5:255 -1:255 30 0] [0x2 1 1 [6 0] [5 4]] (REQUEST)
s 30.000115000 _5_ MAC  --- 0 AODV 106 [0 ffffffff 5 800] ------- [5:255 -1:255 30 0] [0x2 1 1 [6 0] [5 4]] (REQUEST)
r 30.000963579 _4_ MAC  --- 0 AODV 48 [0 ffffffff 5 800] ------- [5:255 -1:255 30 0] [0x2 1 1 [6 0] [5 4]] (REQUEST)
r 30.000988579 _4_ RTR  --- 0 AODV 48 [0 ffffffff 5 800] ------- [5:255 -1:255 30 0] [0x2 1 1 [6 0] [5 4]] (REQUEST)
s 30.001213579 _4_ MAC  --- 0 AODV 106 [0 ffffffff 4 800] ------- [4:255 -1:255 30 0] [0x2 1 1 [6 0] [4 4]] (REQUEST)
r 30.002062079 _1_ MAC  --- 0 AODV 48 [0 ffffffff 4 800] ------- [4:255 -1:255 30 0] [0x2 1 1 [6 0] [4 4]] (REQUEST)
r 30.002062158 _5_ MAC  --- 0 AODV 48 [0 ffffffff 4 800] ------- [4:255 -1:255 30 0] [0x2 1 1 [6 0] [4 4]] (REQUEST)
r 30.002062286 _0_ MAC  --- 0 AODV 48 [0 ffffffff 4 800] ------- [4:255 -1:255 30 0] [0x2 1 1 [6 0] [4 4]] (REQUEST)
r 30.002062286 _2_ MAC  --- 0 AODV 48 [0 ffffffff 4 800] ------- [4:255 -1:255 30 0] [0x2 1 1 [6 0] [4 4]] (REQUEST)
r 30.002062286 _6_ MAC  --- 0 AODV 48 [0 ffffffff 4 800] ------- [4:255 -1:255 30 0] [0x2 1 1 [6 0] [4 4]] (REQUEST)
r 30.002087079 _1_ RTR  --- 0 AODV 48 [0 ffffffff 4 800] ------- [4:255 -1:255 30 0] [0x2 1 1 [6 0] [4 4]] (REQUEST)
r 30.002087158 _5_ RTR  --- 0 AODV 48 [0 ffffffff 4 800] ------- [4:255 -1:255 30 0] [0x2 1 1 [6 0] [4 4]] (REQUEST)
r 30.002087286 _0_ RTR  --- 0 AODV 48 [0 ffffffff 4 800] ------- [4:255 -1:255 30 0] [0x2 1 1 [6 0] [4 4]] (REQUEST)
r 30.002087286 _2_ RTR  --- 0 AODV 48 [0 ffffffff 4 800] ------- [4:255 -1:255 30 0] [0x2 1 1 [6 0] [4 4]] (REQUEST)
r 30.002087286 _6_ RTR  --- 0 AODV 48 [0 ffffffff 4 800] ------- [4:255 -1:255 30 0] [0x2 1 1 [6 0] [4 4]] (REQUEST)
s 30.002087286 _6_ RTR  --- 0 AODV 44 [0 0 0 0] ------- [6:255 4:255 30 4] [0x4 1 [6 4] 10.000000] (REPLY)
s 30.002272286 _0_ MAC  --- 0 AODV 106 [0 ffffffff 0 800] ------- [0:255 -1:255 30 0] [0x2 1 1 [5 0] [0 4]] (REQUEST)
s 30.003028675 _2_ RTR  --- 0 AODV 48 [0 ffffffff 4 800] ------- [2:255 -1:255 29 0] [0x2 2 1 [6 0] [4 4]] (REQUEST)
r 30.003120786 _1_ MAC  --- 0 AODV 48 [0 ffffffff 0 800] ------- [0:255 -1:255 30 0] [0x2 1 1 [5 0] [0 4]] (REQUEST)
r 30.003120993 _4_ MAC  --- 0 AODV 48 [0 ffffffff 0 800] ------- [0:255 -1:255 30 0] [0x2 1 1 [5 0] [0 4]] (REQUEST)
r 30.003145786 _1_ RTR  --- 0 AODV 48 [0 ffffffff 0 800] ------- [0:255 -1:255 30 0] [0x2 1 1 [5 0] [0 4]] (REQUEST)
r 30.003145993 _4_ RTR  --- 0 AODV 48 [0 ffffffff 0 800] ------- [0:255 -1:255 30 0] [0x2 1 1 [5 0] [0 4]] (REQUEST)
s 30.003145993 _4_ RTR  --- 0 AODV 44 [0 0 0 0] ------- [4:255 0:255 30 0] [0x4 2 [5 4] 5.000000] (REPLY)
s 30.003210786 _1_ MAC  --- 0 AODV 106 [0 ffffffff 1 800] ------- [1:255 -1:255 30 0] [0x2 1 1 [5 0] [1 4]] (REQUEST)
s 30.003835339 _0_ RTR  --- 0 AODV 48 [0 ffffffff 4 800] ------- [0:255 -1:255 29 0] [0x2 2 1 [6 0] [4 4]] (REQUEST)
r 30.004059286 _2_ MAC  --- 0 AODV 48 [0 ffffffff 1 800] ------- [1:255 -1:255 30 0] [0x2 1 1 [5 0] [1 4]] (REQUEST)
r 30.004059286 _0_ MAC  --- 0 AODV 48 [0 ffffffff 1 800] ------- [1:255 -1:255 30 0] [0x2 1 1 [5 0] [1 4]] (REQUEST)
r 30.004059286 _4_ MAC  --- 0 AODV 48 [0 ffffffff 1 800] ------- [1:255 -1:255 30 0] [0x2 1 1 [5 0] [1 4]] (REQUEST)
r 30.004059586 _3_ MAC  --- 0 AODV 48 [0 ffffffff 1 800] ------- [1:255 -1:255 30 0] [0x2 1 1 [5 0] [1 4]] (REQUEST)
r 30.004084286 _2_ RTR  --- 0 AODV 48 [0 ffffffff 1 800] ------- [1:255 -1:255 30 0] [0x2 1 1 [5 0] [1 4]] (REQUEST)
r 30.004084286 _0_ RTR  --- 0 AODV 48 [0 ffffffff 1 800] ------- [1:255 -1:255 30 0] [0x2 1 1 [5 0] [1 4]] (REQUEST)
r 30.004084286 _4_ RTR  --- 0 AODV 48 [0 ffffffff 1 800] ------- [1:255 -1:255 30 0] [0x2 1 1 [5 0] [1 4]] (REQUEST)
s 30.004084286 _4_ RTR  --- 0 AODV 44 [0 0 0 0] ------- [4:255 1:255 30 1] [0x4 2 [5 4] 5.000000] (REPLY)
r 30.004084586 _3_ RTR  --- 0 AODV 48 [0 ffffffff 1 800] ------- [1:255 -1:255 30 0] [0x2 1 1 [5 0] [1 4]] (REQUEST)
s 30.004269286 _2_ MAC  --- 0 AODV 106 [0 ffffffff 2 800] ------- [2:255 -1:255 30 0] [0x2 1 1 [6 0] [2 4]] (REQUEST)
s 30.004269286 _0_ MAC  --- 0 AODV 106 [0 ffffffff 0 800] ------- [0:255 -1:255 29 0] [0x2 2 1 [6 0] [4 4]] (REQUEST)
s 30.004269286 _4_ MAC  --- 0 ARP 86 [0 ffffffff 4 806] ------- [REQUEST 4/4 0/0]
D 30.004269786 _1_ MAC  COL 0 AODV 106 [0 ffffffff 0 800] ------- [0:255 -1:255 29 0] [0x2 2 1 [6 0] [4 4]] (REQUEST)
D 30.004269786 _1_ MAC  COL 0 ARP 86 [0 ffffffff 4 806] ------- [REQUEST 4/4 0/0]
D 30.004270200 _5_ MAC  COL 0 ARP 86 [0 ffffffff 4 806] ------- [REQUEST 4/4 0/0]
D 30.004270286 _6_ MAC  COL 0 ARP 86 [0 ffffffff 4 806] ------- [REQUEST 4/4 0/0]
r 30.005117586 _3_ MAC  --- 0 AODV 48 [0 ffffffff 2 800] ------- [2:255 -1:255 30 0] [0x2 1 1 [6 0] [2 4]] (REQUEST)
D 30.005117786 _1_ MAC  COL 0 AODV 106 [0 ffffffff 2 800] ------- [2:255 -1:255 30 0] [0x2 1 1 [6 0] [2 4]] (REQUEST)
r 30.005142586 _3_ RTR  --- 0 AODV 48 [0 ffffffff 2 800] ------- [2:255 -1:255 30 0] [0x2 1 1 [6 0] [2 4]] (REQUEST)
s 30.005592586 _3_ MAC  --- 0 AODV 106 [0 ffffffff 3 800] ------- [3:255 -1:255 30 0] [0x2 1 1 [6 0] [3 4]] (REQUEST)
s 30.005726666 _1_ RTR  --- 0 AODV 48 [0 ffffffff 0 800] ------- [1:255 -1:255 29 0] [0x2 2 1 [5 0] [0 4]] (REQUEST)
s 30.006323726 _5_ RTR  --- 0 AODV 48 [0 ffffffff 4 800] ------- [5:255 -1:255 29 0] [0x2 2 1 [6 0] [4 4]] (REQUEST)
r 30.006440886 _2_ MAC  --- 0 AODV 48 [0 ffffffff 3 800] ------- [3:255 -1:255 30 0] [0x2 1 1 [6 0] [3 4]] (REQUEST)
r 30.006441386 _1_ MAC  --- 0 AODV 48 [0 ffffffff 3 800] ------- [3:255 -1:255 30 0] [0x2 1 1 [6 0] [3 4]] (REQUEST)
r 30.006465886 _2_ RTR  --- 0 AODV 48 [0 ffffffff 3 800] ------- [3:255 -1:255 30 0] [0x2 1 1 [6 0] [3 4]] (REQUEST)
r 30.006466386 _1_ RTR  --- 0 AODV 48 [0 ffffffff 3 800] ------- [3:255 -1:255 30 0] [0x2 1 1 [6 0] [3 4]] (REQUEST)
s 30.006531386 _1_ MAC  --- 0 AODV 106 [0 ffffffff 1 800] ------- [1:255 -1:255 29 0] [0x2 2 1 [5 0] [0 4]] (REQUEST)
r 30.007379886 _2_ MAC  --- 0 AODV 48 [0 ffffffff 1 800] ------- [1:255 -1:255 29 0] [0x2 2 1 [5 0] [0 4]] (REQUEST)
r 30.007379886 _0_ MAC  --- 0 AODV 48 [0 ffffffff 1 800] ------- [1:255 -1:255 29 0] [0x2 2 1 [5 0] [0 4]] (REQUEST)
r 30.007379886 _4_ MAC  --- 0 AODV 48 [0 ffffffff 1 800] ------- [1:255 -1:255 29 0] [0x2 2 1 [5 0] [0 4]] (REQUEST)
r 30.007380186 _3_ MAC  --- 0 AODV 48 [0 ffffffff 1 800] ------- [1:255 -1:255 29 0] [0x2 2 1 [5 0] [0 4]] (REQUEST)
s 30.007389256 _4_ RTR  --- 0 AODV 48 [0 ffffffff 5 800] ------- [4:255 -1:255 29 0] [0x2 2 1 [6 0] [5 4]] (REQUEST)
r 30.007404886 _2_ RTR  --- 0 AODV 48 [0 ffffffff 1 800] ------- [1:255 -1:255 29 0] [0x2 2 1 [5 0] [0 4]] (REQUEST)
r 30.007404886 _0_ RTR  --- 0 AODV 48 [0 ffffffff 1 800] ------- [1:255 -1:255 29 0] [0x2 2 1 [5 0] [0 4]] (REQUEST)
r 30.007404886 _4_ RTR  --- 0 AODV 48 [0 ffffffff 1 800] ------- [1:255 -1:255 29 0] [0x2 2 1 [5 0] [0 4]] (REQUEST)
r 30.007405186 _3_ RTR  --- 0 AODV 48 [0 ffffffff 1 800] ------- [1:255 -1:255 29 0] [0x2 2 1 [5 0] [0 4]] (REQUEST)
s 30.007554842 _3_ RTR  --- 0 AODV 48 [0 ffffffff 2 800] ------- [3:255 -1:255 29 0] [0x2 2 1 [6 0] [2 4]] (REQUEST)
s 30.007690186 _3_ MAC  --- 0 AODV 106 [0 ffffffff 3 800] ------- [3:255 -1:255 29 0] [0x2 2 1 [6 0] [2 4]] (REQUEST)
s 30.008496871 _2_ RTR  --- 0 AODV 48 [0 ffffffff 1 800] ------- [2:255 -1:255 28 0] [0x2 3 1 [5 0] [0 4]] (REQUEST)
r 30.008538487 _2_ MAC  --- 0 AODV 48 [0 ffffffff 3 800] ------- [3:255 -1:255 29 0] [0x2 2 1 [6 0] [2 4]] (REQUEST)
r 30.008538987 _1_ MAC  --- 0 AODV 48 [0 ffffffff 3 800] ------- [3:255 -1:255 29 0] [0x2 2 1 [6 0] [2 4]] (REQUEST)
r 30.008563487 _2_ RTR  --- 0 AODV 48 [0 ffffffff 3 800] ------- [3:255 -1:255 29 0] [0x2 2 1 [6 0] [2 4]] (REQUEST)
r 30.008563987 _1_ RTR  --- 0 AODV 48 [0 ffffffff 3 800] ------- [3:255 -1:255 29 0] [0x2 2 1 [6 0] [2 4]] (REQUEST)
s 30.008628487 _2_ MAC  --- 0 AODV 106 [0 ffffffff 2 800] ------- [2:255 -1:255 29 0] [0x2 2 1 [6 0] [4 4]] (REQUEST)
s 30.008745446 _0_ RTR  --- 0 AODV 48 [0 ffffffff 1 800] ------- [0:255 -1:255 29 0] [0x2 2 1 [5 0] [1 4]] (REQUEST)
s 30.009270774 _2_ RTR  --- 0 AODV 48 [0 ffffffff 1 800] ------- [2:255 -1:255 29 0] [0x2 2 1 [5 0] [1 4]] (REQUEST)
r 30.009476787 _3_ MAC  --- 0 AODV 48 [0 ffffffff 2 800] ------- [2:255 -1:255 29 0] [0x2 2 1 [6 0] [4 4]] (REQUEST)
r 30.009476987 _1_ MAC  --- 0 AODV 48 [0 ffffffff 2 800] ------- [2:255 -1:255 29 0] [0x2 2 1 [6 0] [4 4]] (REQUEST)
r 30.009477194 _4_ MAC  --- 0 AODV 48 [0 ffffffff 2 800] ------- [2:255 -1:255 29 0] [0x2 2 1 [6 0] [4 4]] (REQUEST)
r 30.009501787 _3_ RTR  --- 0 AODV 48 [0 ffffffff 2 800] ------- [2:255 -1:255 29 0] [0x2 2 1 [6 0] [4 4]] (REQUEST)
r 30.009501987 _1_ RTR  --- 0 AODV 48 [0 ffffffff 2 800] ------- [2:255 -1:255 29 0] [0x2 2 1 [6 0] [4 4]] (REQUEST)
r 30.009502194 _4_ RTR  --- 0 AODV 48 [0 ffffffff 2 800] ------- [2:255 -1:255 29 0] [0x2 2 1 [6 0] [4 4]] (REQUEST)
s 30.009746487 _2_ MAC  --- 0 AODV 106 [0 ffffffff 2 800] ------- [2:255 -1:255 29 0] [0x2 2 1 [5 0] [1 4]] (REQUEST)
r 30.010594787 _3_ MAC  --- 0 AODV 48 [0 ffffffff 2 800] ------- [2:255 -1:255 29 0] [0x2 2 1 [5 0] [1 4]] (REQUEST)
r 30.010594987 _1_ MAC  --- 0 AODV 48 [0 ffffffff 2 800] ------- [2:255 -1:255 29 0] [0x2 2 1 [5 0] [1 4]] (REQUEST)
r 30.010595194 _4_ MAC  --- 0 AODV 48 [0 ffffffff 2 800] ------- [2:255 -1:255 29 0] [0x2 2 1 [5 0] [1 4]] (REQUEST)
r 30.010619787 _3_ RTR  --- 0 AODV 48 [0 ffffffff 2 800] ------- [2:255 -1:255 29 0] [0x2 2 1 [5 0] [1 4]] (REQUEST)
r 30.010619987 _1_ RTR  --- 0 AODV 48 [0 ffffffff 2 800] ------- [2:255 -1:255 29 0] [0x2 2 1 [5 0] [1 4]] (REQUEST)
r 30.010620194 _4_ RTR  --- 0 AODV 48 [0 ffffffff 2 800] ------- [2:255 -1:255 29 0] [0x2 2 1 [5 0] [1 4]] (REQUEST)
s 30.010684356 _1_ RTR  --- 0 AODV 48 [0 ffffffff 4 800] ------- [1:255 -1:255 29 0] [0x2 2 1 [6 0] [4 4]] (REQUEST)
s 30.010705194 _4_ MAC  --- 0 ARP 86 [0 ffffffff 4 806] ------- [REQUEST 4/4 0/1]
s 30.011007654 _3_ RTR  --- 0 AODV 48 [0 ffffffff 1 800] ------- [3:255 -1:255 29 0] [0x2 2 1 [5 0] [1 4]] (REQUEST)
r 30.011393694 _1_ MAC  --- 0 ARP 28 [0 ffffffff 4 806] ------- [REQUEST 4/4 0/1]
r 30.011393774 _5_ MAC  --- 0 ARP 28 [0 ffffffff 4 806] ------- [REQUEST 4/4 0/1]
r 30.011393901 _0_ MAC  --- 0 ARP 28 [0 ffffffff 4 806] ------- [REQUEST 4/4 0/1]
r 30.011393901 _2_ MAC  --- 0 ARP 28 [0 ffffffff 4 806] ------- [REQUEST 4/4 0/1]
r 30.011393901 _6_ MAC  --- 0 ARP 28 [0 ffffffff 4 806] ------- [REQUEST 4/4 0/1]
s 30.011447262 _3_ RTR  --- 0 AODV 48 [0 ffffffff 1 800] ------- [3:255 -1:255 28 0] [0x2 3 1 [5 0] [0 4]] (REQUEST)
s 30.011503694 _1_ MAC  --- 0 AODV 106 [0 ffffffff 1 800] ------- [1:255 -1:255 29 0] [0x2 2 1 [6 0] [4 4]] (REQUEST)
r 30.012352194 _2_ MAC  --- 0 AODV 48 [0 ffffffff 1 800] ------- [1:255 -1:255 29 0] [0x2 2 1 [6 0] [4 4]] (REQUEST)
r 30.012352194 _0_ MAC  --- 0 AODV 48 [0 ffffffff 1 800] ------- [1:255 -1:255 29 0] [0x2 2 1 [6 0] [4 4]] (REQUEST)
r 30.012352194 _4_ MAC  --- 0 AODV 48 [0 ffffffff 1 800] ------- [1:255 -1:255 29 0] [0x2 2 1 [6 0] [4 4]] (REQUEST)
r 30.012352494 _3_ MAC  --- 0 AODV 48 [0 ffffffff 1 800] ------- [1:255 -1:255 29 0] [0x2 2 1 [6 0] [4 4]] (REQUEST)
r 30.012377194 _2_ RTR  --- 0 AODV 48 [0 ffffffff 1 800] ------- [1:255 -1:255 29 0] [0x2 2 1 [6 0] [4 4]] (REQUEST)
r 30.012377194 _0_ RTR  --- 0 AODV 48 [0 ffffffff 1 800] ------- [1:255 -1:255 29 0] [0x2 2 1 [6 0] [4 4]] (REQUEST)
r 30.012377194 _4_ RTR  --- 0 AODV 48 [0 ffffffff 1 800] ------- [1:255 -1:255 29 0] [0x2 2 1 [6 0] [4 4]] (REQUEST)
r 30.012377494 _3_ RTR  --- 0 AODV 48 [0 ffffffff 1 800] ------- [1:255 -1:255 29 0] [0x2 2 1 [6 0] [4 4]] (REQUEST)
s 30.012522494 _3_ MAC  --- 0 AODV 106 [0 ffffffff 3 800] ------- [3:255 -1:255 29 0] [0x2 2 1 [5 0] [1 4]] (REQUEST)
r 30.013370795 _2_ MAC  --- 0 AODV 48 [0 ffffffff 3 800] ------- [3:255 -1:255 29 0] [0x2 2 1 [5 0] [1 4]] (REQUEST)
r 30.013371295 _1_ MAC  --- 0 AODV 48 [0 ffffffff 3 800] ------- [3:255 -1:255 29 0] [0x2 2 1 [5 0] [1 4]] (REQUEST)
r 30.013395795 _2_ RTR  --- 0 AODV 48 [0 ffffffff 3 800] ------- [3:255 -1:255 29 0] [0x2 2 1 [5 0] [1 4]] (REQUEST)
r 30.013396295 _1_ RTR  --- 0 AODV 48 [0 ffffffff 3 800] ------- [3:255 -1:255 29 0] [0x2 2 1 [5 0] [1 4]] (REQUEST)
s 30.013700494 _3_ MAC  --- 0 AODV 106 [0 ffffffff 3 800] ------- [3:255 -1:255 28 0] [0x2 3 1 [5 0] [0 4]] (REQUEST)
s 30.014088205 _2_ RTR  --- 0 AODV 48 [0 ffffffff 3 800] ------- [2:255 -1:255 29 0] [0x2 2 1 [6 0] [3 4]] (REQUEST)
r 30.014548795 _2_ MAC  --- 0 AODV 48 [0 ffffffff 3 800] ------- [3:255 -1:255 28 0] [0x2 3 1 [5 0] [0 4]] (REQUEST)
r 30.014549295 _1_ MAC  --- 0 AODV 48 [0 ffffffff 3 800] ------- [3:255 -1:255 28 0] [0x2 3 1 [5 0] [0 4]] (REQUEST)
r 30.014573795 _2_ RTR  --- 0 AODV 48 [0 ffffffff 3 800] ------- [3:255 -1:255 28 0] [0x2 3 1 [5 0] [0 4]] (REQUEST)
r 30.014574295 _1_ RTR  --- 0 AODV 48 [0 ffffffff 3 800] ------- [3:255 -1:255 28 0] [0x2 3 1 [5 0] [0 4]] (REQUEST)
s 30.014658795 _2_ MAC  --- 0 AODV 106 [0 ffffffff 2 800] ------- [2:255 -1:255 28 0] [0x2 3 1 [5 0] [0 4]] (REQUEST)
r 30.015507096 _3_ MAC  --- 0 AODV 48 [0 ffffffff 2 800] ------- [2:255 -1:255 28 0] [0x2 3 1 [5 0] [0 4]] (REQUEST)
r 30.015507295 _1_ MAC  --- 0 AODV 48 [0 ffffffff 2 800] ------- [2:255 -1:255 28 0] [0x2 3 1 [5 0] [0 4]] (REQUEST)
r 30.015507502 _4_ MAC  --- 0 AODV 48 [0 ffffffff 2 800] ------- [2:255 -1:255 28 0] [0x2 3 1 [5 0] [0 4]] (REQUEST)
s 30.015515841 _1_ RTR  --- 0 AODV 48 [0 ffffffff 3 800] ------- [1:255 -1:255 29 0] [0x2 2 1 [6 0] [3 4]] (REQUEST)
r 30.015532096 _3_ RTR  --- 0 AODV 48 [0 ffffffff 2 800] ------- [2:255 -1:255 28 0] [0x2 3 1 [5 0] [0 4]] (REQUEST)
r 30.015532295 _1_ RTR  --- 0 AODV 48 [0 ffffffff 2 800] ------- [2:255 -1:255 28 0] [0x2 3 1 [5 0] [0 4]] (REQUEST)
r 30.015532502 _4_ RTR  --- 0 AODV 48 [0 ffffffff 2 800] ------- [2:255 -1:255 28 0] [0x2 3 1 [5 0] [0 4]] (REQUEST)
s 30.015597295 _1_ MAC  --- 0 RTS 44 [52e 4 1 0] 
r 30.015949795 _4_ MAC  --- 0 RTS 44 [52e 4 1 0] 
s 30.015959795 _4_ MAC  --- 0 CTS 38 [3f4 1 0 0] 
r 30.016264295 _1_ MAC  --- 0 CTS 38 [3f4 1 0 0] 
s 30.016274295 _1_ MAC  --- 0 ARP 86 [13a 4 1 806] ------- [REPLY 1/1 4/4]
r 30.016962795 _4_ MAC  --- 0 ARP 28 [13a 4 1 806] ------- [REPLY 1/1 4/4]
s 30.016972795 _4_ MAC  --- 0 ACK 38 [0 1 0 0] 
r 30.017277295 _1_ MAC  --- 0 ACK 38 [0 1 0 0] 
s 30.017367502 _0_ MAC  --- 0 AODV 106 [0 ffffffff 0 800] ------- [0:255 -1:255 29 0] [0x2 2 1 [5 0] [1 4]] (REQUEST)
s 30.017438422 _1_ RTR  --- 0 AODV 48 [0 ffffffff 3 800] ------- [1:255 -1:255 28 0] [0x2 3 1 [6 0] [2 4]] (REQUEST)
r 30.018216002 _1_ MAC  --- 0 AODV 48 [0 ffffffff 0 800] ------- [0:255 -1:255 29 0] [0x2 2 1 [5 0] [1 4]] (REQUEST)
r 30.018216209 _4_ MAC  --- 0 AODV 48 [0 ffffffff 0 800] ------- [0:255 -1:255 29 0] [0x2 2 1 [5 0] [1 4]] (REQUEST)
r 30.018241002 _1_ RTR  --- 0 AODV 48 [0 ffffffff 0 800] ------- [0:255 -1:255 29 0] [0x2 2 1 [5 0] [1 4]] (REQUEST)
r 30.018241209 _4_ RTR  --- 0 AODV 48 [0 ffffffff 0 800] ------- [0:255 -1:255 29 0] [0x2 2 1 [5 0] [1 4]] (REQUEST)
s 30.018346209 _4_ MAC  --- 0 AODV 106 [0 ffffffff 4 800] ------- [4:255 -1:255 29 0] [0x2 2 1 [6 0] [5 4]] (REQUEST)
s 30.018415265 _3_ RTR  --- 0 AODV 48 [0 ffffffff 2 800] ------- [3:255 -1:255 28 0] [0x2 3 1 [6 0] [4 4]] (REQUEST)
r 30.019194709 _1_ MAC  --- 0 AODV 48 [0 ffffffff 4 800] ------- [4:255 -1:255 29 0] [0x2 2 1 [6 0] [5 4]] (REQUEST)
r 30.019194789 _5_ MAC  --- 0 AODV 48 [0 ffffffff 4 800] ------- [4:255 -1:255 29 0] [0x2 2 1 [6 0] [5 4]] (REQUEST)
r 30.019194916 _0_ MAC  --- 0 AODV 48 [0 ffffffff 4 800] ------- [4:255 -1:255 29 0] [0x2 2 1 [6 0] [5 4]] (REQUEST)
r 30.019194916 _2_ MAC  --- 0 AODV 48 [0 ffffffff 4 800] ------- [4:255 -1:255 29 0] [0x2 2 1 [6 0] [5 4]] (REQUEST)
r 30.019194916 _6_ MAC  --- 0 AODV 48 [0 ffffffff 4 800] ------- [4:255 -1:255 29 0] [0x2 2 1 [6 0] [5 4]] (REQUEST)
r 30.019219709 _1_ RTR  --- 0 AODV 48 [0 ffffffff 4 800] ------- [4:255 -1:255 29 0] [0x2 2 1 [6 0] [5 4]] (REQUEST)
s 30.019219709 _1_ RTR  --- 1 tcp 40 [0 0 0 0] ------- [1:0 5:1 30 4] [0 0] 0 0
r 30.019219789 _5_ RTR  --- 0 AODV 48 [0 ffffffff 4 800] ------- [4:255 -1:255 29 0] [0x2 2 1 [6 0] [5 4]] (REQUEST)
r 30.019219916 _0_ RTR  --- 0 AODV 48 [0 ffffffff 4 800] ------- [4:255 -1:255 29 0] [0x2 2 1 [6 0] [5 4]] (REQUEST)
r 30.019219916 _2_ RTR  --- 0 AODV 48 [0 ffffffff 4 800] ------- [4:255 -1:255 29 0] [0x2 2 1 [6 0] [5 4]] (REQUEST)
r 30.019219916 _6_ RTR  --- 0 AODV 48 [0 ffffffff 4 800] ------- [4:255 -1:255 29 0] [0x2 2 1 [6 0] [5 4]] (REQUEST)
s 30.019219916 _0_ RTR  --- 0 tcp 40 [0 0 0 0] ------- [0:0 5:0 30 4] [0 0] 0 0
s 30.019219916 _6_ RTR  --- 0 AODV 44 [0 0 0 0] ------- [6:255 5:255 30 4] [0x4 1 [6 6] 10.000000] (REPLY)
s 30.019304789 _5_ MAC  --- 0 AODV 106 [0 ffffffff 5 800] ------- [5:255 -1:255 29 0] [0x2 2 1 [6 0] [4 4]] (REQUEST)
r 30.020153370 _4_ MAC  --- 0 AODV 48 [0 ffffffff 5 800] ------- [5:255 -1:255 29 0] [0x2 2 1 [6 0] [4 4]] (REQUEST)
r 30.020178370 _4_ RTR  --- 0 AODV 48 [0 ffffffff 5 800] ------- [5:255 -1:255 29 0] [0x2 2 1 [6 0] [4 4]] (REQUEST)
s 30.020363370 _4_ MAC  --- 0 RTS 44 [5ae 1 4 0] 
r 30.020715870 _1_ MAC  --- 0 RTS 44 [5ae 1 4 0] 
s 30.020725870 _1_ MAC  --- 0 CTS 38 [474 4 0 0] 
r 30.021030370 _4_ MAC  --- 0 CTS 38 [474 4 0 0] 
s 30.021040370 _4_ MAC  --- 0 AODV 102 [13a 1 4 800] ------- [4:255 1:255 30 1] [0x4 2 [5 4] 5.000000] (REPLY)
s 30.021837950 _1_ RTR  --- 0 AODV 48 [0 ffffffff 4 800] ------- [1:255 -1:255 28 0] [0x2 3 1 [6 0] [5 4]] (REQUEST)
r 30.021856870 _1_ MAC  --- 0 AODV 44 [13a 1 4 800] ------- [4:255 1:255 30 1] [0x4 2 [5 4] 5.000000] (REPLY)
s 30.021866870 _1_ MAC  --- 0 ACK 38 [0 4 0 0] 
r 30.021881870 _1_ RTR  --- 0 AODV 44 [13a 1 4 800] ------- [4:255 1:255 30 1] [0x4 2 [5 4] 5.000000] (REPLY)
r 30.022171370 _4_ MAC  --- 0 ACK 38 [0 4 0 0] 
s 30.022301370 _0_ MAC  --- 0 RTS 44 [58e 4 0 0] 
r 30.022654077 _4_ MAC  --- 0 RTS 44 [58e 4 0 0] 
s 30.022664077 _4_ MAC  --- 0 CTS 38 [454 0 0 0] 
r 30.022968784 _0_ MAC  --- 0 CTS 38 [454 0 0 0] 
s 30.022978784 _0_ MAC  --- 0 tcp 98 [13a 4 0 800] ------- [0:0 5:0 30 4] [0 0] 0 0
s 30.023476789 _2_ RTR  --- 0 AODV 48 [0 ffffffff 4 800] ------- [2:255 -1:255 28 0] [0x2 3 1 [6 0] [5 4]] (REQUEST)
r 30.023763491 _4_ MAC  --- 0 tcp 40 [13a 4 0 800] ------- [0:0 5:0 30 4] [0 0] 1 0
s 30.023773491 _4_ MAC  --- 0 ACK 38 [0 0 0 0] 
r 30.023788491 _4_ RTR  --- 0 tcp 40 [13a 4 0 800] ------- [0:0 5:0 30 4] [0 0] 1 0
f 30.023788491 _4_ RTR  --- 0 tcp 40 [13a 4 0 800] ------- [0:0 5:0 29 5] [0 0] 1 0
r 30.024078198 _0_ MAC  --- 0 ACK 38 [0 0 0 0] 
s 30.024197784 _6_ MAC  --- 0 ARP 86 [0 ffffffff 6 806] ------- [REQUEST 6/6 0/4]
s 30.024768313 _0_ RTR  --- 0 AODV 48 [0 ffffffff 4 800] ------- [0:255 -1:255 28 0] [0x2 3 1 [6 0] [5 4]] (REQUEST)
r 30.024886491 _4_ MAC  --- 0 ARP 28 [0 ffffffff 6 806] ------- [REQUEST 6/6 0/4]
s 30.025116491 _4_ MAC  --- 0 ARP 86 [0 ffffffff 4 806] ------- [REQUEST 4/4 0/5]
r 30.025804991 _1_ MAC  --- 0 ARP 28 [0 ffffffff 4 806] ------- [REQUEST 4/4 0/5]
r 30.025805072 _5_ MAC  --- 0 ARP 28 [0 ffffffff 4 806] ------- [REQUEST 4/4 0/5]
r 30.025805198 _0_ MAC  --- 0 ARP 28 [0 ffffffff 4 806] ------- [REQUEST 4/4 0/5]
r 30.025805198 _2_ MAC  --- 0 ARP 28 [0 ffffffff 4 806] ------- [REQUEST 4/4 0/5]
r 30.025805198 _6_ MAC  --- 0 ARP 28 [0 ffffffff 4 806] ------- [REQUEST 4/4 0/5]
s 30.025874491 _4_ MAC  --- 0 RTS 44 [52e 6 4 0] 
r 30.026227198 _6_ MAC  --- 0 RTS 44 [52e 6 4 0] 
s 30.026237198 _6_ MAC  --- 0 CTS 38 [3f4 4 0 0] 
r 30.026541905 _4_ MAC  --- 0 CTS 38 [3f4 4 0 0] 
s 30.026551905 _4_ MAC  --- 0 ARP 86 [13a 6 4 806] ------- [REPLY 4/4 6/6]
r 30.027240612 _6_ MAC  --- 0 ARP 28 [13a 6 4 806] ------- [REPLY 4/4 6/6]
s 30.027250612 _6_ MAC  --- 0 ACK 38 [0 4 0 0] 
r 30.027555319 _4_ MAC  --- 0 ACK 38 [0 4 0 0] 
s 30.027704612 _6_ MAC  --- 0 RTS 44 [5ae 4 6 0] 
r 30.028057319 _4_ MAC  --- 0 RTS 44 [5ae 4 6 0] 
s 30.028067319 _4_ MAC  --- 0 CTS 38 [474 6 0 0] 
r 30.028372027 _6_ MAC  --- 0 CTS 38 [474 6 0 0] 
s 30.028382027 _6_ MAC  --- 0 AODV 102 [13a 4 6 800] ------- [6:255 5:255 30 4] [0x4 1 [6 6] 10.000000] (REPLY)
r 30.029198734 _4_ MAC  --- 0 AODV 44 [13a 4 6 800] ------- [6:255 5:255 30 4] [0x4 1 [6 6] 10.000000] (REPLY)
s 30.029208734 _4_ MAC  --- 0 ACK 38 [0 6 0 0] 
r 30.029223734 _4_ RTR  --- 0 AODV 44 [13a 4 6 800] ------- [6:255 5:255 30 4] [0x4 1 [6 6] 10.000000] (REPLY)
s 30.029223734 _4_ RTR  --- 4 tcp 40 [0 0 0 0] ------- [4:0 6:2 30 6] [0 0] 0 0
f 30.029223734 _4_ RTR  --- 0 AODV 44 [13a 4 6 800] ------- [6:255 5:255 29 5] [0x4 2 [6 6] 10.000000] (REPLY)
D 30.029223734 _4_ IFQ  ARP 0 tcp 40 [13a 4 4 800] ------- [0:0 5:0 29 5] [0 0] 1 0
r 30.029513441 _6_ MAC  --- 0 ACK 38 [0 6 0 0] 
s 30.029653441 _2_ MAC  --- 0 AODV 106 [0 ffffffff 2 800] ------- [2:255 -1:255 29 0] [0x2 2 1 [6 0] [3 4]] (REQUEST)
r 30.030501742 _3_ MAC  --- 0 AODV 48 [0 ffffffff 2 800] ------- [2:255 -1:255 29 0] [0x2 2 1 [6 0] [3 4]] (REQUEST)
r 30.030501941 _1_ MAC  --- 0 AODV 48 [0 ffffffff 2 800] ------- [2:255 -1:255 29 0] [0x2 2 1 [6 0] [3 4]] (REQUEST)
r 30.030502148 _4_ MAC  --- 0 AODV 48 [0 ffffffff 2 800] ------- [2:255 -1:255 29 0] [0x2 2 1 [6 0] [3 4]] (REQUEST)
r 30.030526742 _3_ RTR  --- 0 AODV 48 [0 ffffffff 2 800] ------- [2:255 -1:255 29 0] [0x2 2 1 [6 0] [3 4]] (REQUEST)
r 30.030526941 _1_ RTR  --- 0 AODV 48 [0 ffffffff 2 800] ------- [2:255 -1:255 29 0] [0x2 2 1 [6 0] [3 4]] (REQUEST)
r 30.030527148 _4_ RTR  --- 0 AODV 48 [0 ffffffff 2 800] ------- [2:255 -1:255 29 0] [0x2 2 1 [6 0] [3 4]] (REQUEST)
s 30.030527148 _4_ RTR  --- 0 AODV 44 [0 0 0 0] ------- [4:255 3:255 30 2] [0x4 2 [6 6] 9.000000] (REPLY)
s 30.030611742 _3_ MAC  --- 0 AODV 106 [0 ffffffff 3 800] ------- [3:255 -1:255 28 0] [0x2 3 1 [6 0] [4 4]] (REQUEST)
r 30.031460044 _2_ MAC  --- 0 AODV 48 [0 ffffffff 3 800] ------- [3:255 -1:255 28 0] [0x2 3 1 [6 0] [4 4]] (REQUEST)
r 30.031460544 _1_ MAC  --- 0 AODV 48 [0 ffffffff 3 800] ------- [3:255 -1:255 28 0] [0x2 3 1 [6 0] [4 4]] (REQUEST)
r 30.031485044 _2_ RTR  --- 0 AODV 48 [0 ffffffff 3 800] ------- [3:255 -1:255 28 0] [0x2 3 1 [6 0] [4 4]] (REQUEST)
r 30.031485544 _1_ RTR  --- 0 AODV 48 [0 ffffffff 3 800] ------- [3:255 -1:255 28 0] [0x2 3 1 [6 0] [4 4]] (REQUEST)
s 30.031570044 _2_ MAC  --- 0 AODV 106 [0 ffffffff 2 800] ------- [2:255 -1:255 28 0] [0x2 3 1 [6 0] [5 4]] (REQUEST)
s 30.031570544 _1_ MAC  --- 0 AODV 106 [0 ffffffff 1 800] ------- [1:255 -1:255 29 0] [0x2 2 1 [6 0] [3 4]] (REQUEST)
D 30.031571044 _4_ MAC  COL 0 AODV 106 [0 ffffffff 2 800] ------- [2:255 -1:255 28 0] [0x2 3 1 [6 0] [5 4]] (REQUEST)
r 30.032418346 _3_ MAC  --- 0 AODV 48 [0 ffffffff 2 800] ------- [2:255 -1:255 28 0] [0x2 3 1 [6 0] [5 4]] (REQUEST)
r 30.032419044 _0_ MAC  --- 0 AODV 48 [0 ffffffff 1 800] ------- [1:255 -1:255 29 0] [0x2 2 1 [6 0] [3 4]] (REQUEST)
D 30.032419044 _4_ MAC  COL 0 AODV 106 [0 ffffffff 1 800] ------- [1:255 -1:255 29 0] [0x2 2 1 [6 0] [3 4]] (REQUEST)
r 30.032443346 _3_ RTR  --- 0 AODV 48 [0 ffffffff 2 800] ------- [2:255 -1:255 28 0] [0x2 3 1 [6 0] [5 4]] (REQUEST)
r 30.032444044 _0_ RTR  --- 0 AODV 48 [0 ffffffff 1 800] ------- [1:255 -1:255 29 0] [0x2 2 1 [6 0] [3 4]] (REQUEST)
s 30.032893544 _5_ MAC  --- 0 RTS 44 [52e 4 5 0] 
r 30.033246125 _4_ MAC  --- 0 RTS 44 [52e 4 5 0] 
s 30.033256125 _4_ MAC  --- 0 CTS 38 [3f4 5 0 0] 
r 30.033560706 _5_ MAC  --- 0 CTS 38 [3f4 5 0 0] 
s 30.033570706 _5_ MAC  --- 0 ARP 86 [13a 4 5 806] ------- [REPLY 5/5 4/4]
r 30.034259287 _4_ MAC  --- 0 ARP 28 [13a 4 5 806] ------- [REPLY 5/5 4/4]
s 30.034269287 _4_ MAC  --- 0 ACK 38 [0 5 0 0] 
r 30.034573869 _5_ MAC  --- 0 ACK 38 [0 5 0 0] 
s 30.034773622 _6_ MAC  --- 0 RTS 44 [5ae 4 6 0] 
r 30.035126329 _4_ MAC  --- 0 RTS 44 [5ae 4 6 0] 
s 30.035136329 _4_ MAC  --- 0 CTS 38 [474 6 0 0] 
r 30.035441036 _6_ MAC  --- 0 CTS 38 [474 6 0 0] 
s 30.035451036 _6_ MAC  --- 0 AODV 102 [13a 4 6 800] ------- [6:255 4:255 30 4] [0x4 1 [6 4] 10.000000] (REPLY)
r 30.036267743 _4_ MAC  --- 0 AODV 44 [13a 4 6 800] ------- [6:255 4:255 30 4] [0x4 1 [6 4] 10.000000] (REPLY)
s 30.036277743 _4_ MAC  --- 0 ACK 38 [0 6 0 0] 
r 30.036292743 _4_ RTR  --- 0 AODV 44 [13a 4 6 800] ------- [6:255 4:255 30 4] [0x4 1 [6 4] 10.000000] (REPLY)
r 30.036582450 _6_ MAC  --- 0 ACK 38 [0 6 0 0] 
s 30.036691743 _4_ MAC  --- 0 ARP 86 [0 ffffffff 4 806] ------- [REQUEST 4/4 0/5]
r 30.037380243 _1_ MAC  --- 0 ARP 28 [0 ffffffff 4 806] ------- [REQUEST 4/4 0/5]
r 30.037380324 _5_ MAC  --- 0 ARP 28 [0 ffffffff 4 806] ------- [REQUEST 4/4 0/5]
r 30.037380450 _0_ MAC  --- 0 ARP 28 [0 ffffffff 4 806] ------- [REQUEST 4/4 0/5]
r 30.037380450 _2_ MAC  --- 0 ARP 28 [0 ffffffff 4 806] ------- [REQUEST 4/4 0/5]
r 30.037380450 _6_ MAC  --- 0 ARP 28 [0 ffffffff 4 806] ------- [REQUEST 4/4 0/5]
s 30.037470450 _0_ MAC  --- 0 AODV 106 [0 ffffffff 0 800] ------- [0:255 -1:255 28 0] [0x2 3 1 [6 0] [5 4]] (REQUEST)
s 30.037773030 _0_ RTR  --- 0 AODV 48 [0 ffffffff 1 800] ------- [0:255 -1:255 28 0] [0x2 3 1 [6 0] [3 4]] (REQUEST)
r 30.038318950 _1_ MAC  --- 0 AODV 48 [0 ffffffff 0 800] ------- [0:255 -1:255 28 0] [0x2 3 1 [6 0] [5 4]] (REQUEST)
r 30.038319157 _4_ MAC  --- 0 AODV 48 [0 ffffffff 0 800] ------- [0:255 -1:255 28 0] [0x2 3 1 [6 0] [5 4]] (REQUEST)
r 30.038343950 _1_ RTR  --- 0 AODV 48 [0 ffffffff 0 800] ------- [0:255 -1:255 28 0] [0x2 3 1 [6 0] [5 4]] (REQUEST)
r 30.038344157 _4_ RTR  --- 0 AODV 48 [0 ffffffff 0 800] ------- [0:255 -1:255 28 0] [0x2 3 1 [6 0] [5 4]] (REQUEST)
s 30.038428450 _0_ MAC  --- 0 AODV 106 [0 ffffffff 0 800] ------- [0:255 -1:255 28 0] [0x2 3 1 [6 0] [3 4]] (REQUEST)
r 30.039276950 _1_ MAC  --- 0 AODV 48 [0 ffffffff 0 800] ------- [0:255 -1:255 28 0] [0x2 3 1 [6 0] [3 4]] (REQUEST)
r 30.039277157 _4_ MAC  --- 0 AODV 48 [0 ffffffff 0 800] ------- [0:255 -1:255 28 0] [0x2 3 1 [6 0] [3 4]] (REQUEST)
r 30.039301950 _1_ RTR  --- 0 AODV 48 [0 ffffffff 0 800] ------- [0:255 -1:255 28 0] [0x2 3 1 [6 0] [3 4]] (REQUEST)
r 30.039302157 _4_ RTR  --- 0 AODV 48 [0 ffffffff 0 800] ------- [0:255 -1:255 28 0] [0x2 3 1 [6 0] [3 4]] (REQUEST)
s 30.039507157 _4_ MAC  --- 0 RTS 44 [5ae 5 4 0] 
r 30.039859739 _5_ MAC  --- 0 RTS 44 [5ae 5 4 0] 
s 30.039869739 _5_ MAC  --- 0 CTS 38 [474 4 0 0] 
r 30.040174321 _4_ MAC  --- 0 CTS 38 [474 4 0 0] 
s 30.040184321 _4_ MAC  --- 0 AODV 102 [13a 5 4 800] ------- [6:255 5:255 29 5] [0x4 2 [6 6] 10.000000] (REPLY)
r 30.041000902 _5_ MAC  --- 0 AODV 44 [13a 5 4 800] ------- [6:255 5:255 29 5] [0x4 2 [6 6] 10.000000] (REPLY)
s 30.041010902 _5_ MAC  --- 0 ACK 38 [0 4 0 0] 
r 30.041025902 _5_ RTR  --- 0 AODV 44 [13a 5 4 800] ------- [6:255 5:255 29 5] [0x4 2 [6 6] 10.000000] (REPLY)
s 30.041025902 _5_ RTR  --- 5 tcp 40 [0 0 0 0] ------- [5:2 6:3 30 4] [0 0] 0 0
s 30.041094401 _3_ RTR  --- 0 AODV 48 [0 ffffffff 2 800] ------- [3:255 -1:255 27 0] [0x2 4 1 [6 0] [5 4]] (REQUEST)
r 30.041315484 _4_ MAC  --- 0 ACK 38 [0 4 0 0] 
s 30.041544902 _5_ MAC  --- 0 RTS 44 [52e 4 5 0] 
r 30.041897484 _4_ MAC  --- 0 RTS 44 [52e 4 5 0] 
s 30.041907484 _4_ MAC  --- 0 CTS 38 [3f4 5 0 0] 
r 30.042212066 _5_ MAC  --- 0 CTS 38 [3f4 5 0 0] 
s 30.042222066 _5_ MAC  --- 0 ARP 86 [13a 4 5 806] ------- [REPLY 5/5 4/4]
r 30.042910648 _4_ MAC  --- 0 ARP 28 [13a 4 5 806] ------- [REPLY 5/5 4/4]
s 30.042920648 _4_ MAC  --- 0 ACK 38 [0 5 0 0] 
r 30.043225230 _5_ MAC  --- 0 ACK 38 [0 5 0 0] 
s 30.043365066 _1_ MAC  --- 0 AODV 106 [0 ffffffff 1 800] ------- [1:255 -1:255 28 0] [0x2 3 1 [6 0] [5 4]] (REQUEST)
r 30.044213566 _2_ MAC  --- 0 AODV 48 [0 ffffffff 1 800] ------- [1:255 -1:255 28 0] [0x2 3 1 [6 0] [5 4]] (REQUEST)
r 30.044213566 _0_ MAC  --- 0 AODV 48 [0 ffffffff 1 800] ------- [1:255 -1:255 28 0] [0x2 3 1 [6 0] [5 4]] (REQUEST)
r 30.044213566 _4_ MAC  --- 0 AODV 48 [0 ffffffff 1 800] ------- [1:255 -1:255 28 0] [0x2 3 1 [6 0] [5 4]] (REQUEST)
r 30.044213869 _3_ MAC  --- 0 AODV 48 [0 ffffffff 1 800] ------- [1:255 -1:255 28 0] [0x2 3 1 [6 0] [5 4]] (REQUEST)
r 30.044238566 _2_ RTR  --- 0 AODV 48 [0 ffffffff 1 800] ------- [1:255 -1:255 28 0] [0x2 3 1 [6 0] [5 4]] (REQUEST)
r 30.044238566 _0_ RTR  --- 0 AODV 48 [0 ffffffff 1 800] ------- [1:255 -1:255 28 0] [0x2 3 1 [6 0] [5 4]] (REQUEST)
r 30.044238566 _4_ RTR  --- 0 AODV 48 [0 ffffffff 1 800] ------- [1:255 -1:255 28 0] [0x2 3 1 [6 0] [5 4]] (REQUEST)