+ 1 0 1 tcp 40 ------- 0 0.0 1.0 0 0
- 1 0 1 tcp 40 ------- 0 0.0 1.0 0 0
r 1.01002 0 1 tcp 40 ------- 0 0.0 1.0 0 0
+ 1.01002 1 0 ack 40 ------- 0 1.0 0.0 0 1
- 1.01002 1 0 ack 40 ------- 0 1.0 0.0 0 1
r 1.02004 1 0 ack 40 ------- 0 1.0 0.0 0 1
+ 1.02004 0 1 tcp 1040 ------- 0 0.0 1.0 1 2
- 1.02004 0 1 tcp 1040 ------- 0 0.0 1.0 1 2
+ 1.02004 0 1 tcp 1040 ------- 0 0.0 1.0 2 3
- 1.02056 0 1 tcp 1040 ------- 0 0.0 1.0 2 3
r 1.03056 0 1 tcp 1040 ------- 0 0.0 1.0 1 2
+ 1.03056 1 0 ack 40 ------- 0 1.0 0.0 1 4
- 1.03056 1 0 ack 40 ------- 0 1.0 0.0 1 4
r 1.03108 0 1 tcp 1040 ------- 0 0.0 1.0 2 3
+ 1.03108 1 0 ack 40 ------- 0 1.0 0.0 2 5
- 1.03108 1 0 ack 40 ------- 0 1.0 0.0 2 5
r 1.04058 1 0 ack 40 ------- 0 1.0 0.0 1 4
+ 1.04058 0 1 tcp 1040 ------- 0 0.0 1.0 3 6
- 1.04058 0 1 tcp 1040 ------- 0 0.0 1.0 3 6
+ 1.04058 0 1 tcp 1040 ------- 0 0.0 1.0 4 7
r 1.0411 1 0 ack 40 ------- 0 1.0 0.0 2 5
+ 1.0411 0 1 tcp 1040 ------- 0 0.0 1.0 5 8
+ 1.0411 0 1 tcp 1040 ------- 0 0.0 1.0 6 9
- 1.0411 0 1 tcp 1040 ------- 0 0.0 1.0 4 7
- 1.04162 0 1 tcp 1040 ------- 0 0.0 1.0 5 8
- 1.04214 0 1 tcp 1040 ------- 0 0.0 1.0 6 9
r 1.0511 0 1 tcp 1040 ------- 0 0.0 1.0 3 6
+ 1.0511 1 0 ack 40 ------- 0 1.0 0.0 3 10
- 1.0511 1 0 ack 40 ------- 0 1.0 0.0 3 10
r 1.05162 0 1 tcp 1040 ------- 0 0.0 1.0 4 7
+ 1.05162 1 0 ack 40 ------- 0 1.0 0.0 4 11
- 1.05162 1 0 ack 40 ------- 0 1.0 0.0 4 11
r 1.05214 0 1 tcp 1040 ------- 0 0.0 1.0 5 8
+ 1.05214 1 0 ack 40 ------- 0 1.0 0.0 5 12
- 1.05214 1 0 ack 40 ------- 0 1.0 0.0 5 12
r 1.05266 0 1 tcp 1040 ------- 0 0.0 1.0 6 9
+ 1.05266 1 0 ack 40 ------- 0 1.0 0.0 6 13
- 1.05266 1 0 ack 40 ------- 0 1.0 0.0 6 13
r 1.06112 1 0 ack 40 ------- 0 1.0 0.0 3 10
+ 1.06112 0 1 tcp 1040 ------- 0 0.0 1.0 7 14
- 1.06112 0 1 tcp 1040 ------- 0 0.0 1.0 7 14
+ 1.06112 0 1 tcp 1040 ------- 0 0.0 1.0 8 15
r 1.06164 1 0 ack 40 ------- 0 1.0 0.0 4 11
+ 1.06164 0 1 tcp 1040 ------- 0 0.0 1.0 9 16
+ 1.06164 0 1 tcp 1040 ------- 0 0.0 1.0 10 17
- 1.06164 0 1 tcp 1040 ------- 0 0.0 1.0 8 15
r 1.06216 1 0 ack 40 ------- 0 1.0 0.0 5 12
+ 1.06216 0 1 tcp 1040 ------- 0 0.0 1.0 11 18
+ 1.06216 0 1 tcp 1040 ------- 0 0.0 1.0 12 19
- 1.06216 0 1 tcp 1040 ------- 0 0.0 1.0 9 16
r 1.06268 1 0 ack 40 ------- 0 1.0 0.0 6 13
+ 1.06268 0 1 tcp 1040 ------- 0 0.0 1.0 13 20
+ 1.06268 0 1 tcp 1040 ------- 0 0.0 1.0 14 21
- 1.06268 0 1 tcp 1040 ------- 0 0.0 1.0 10 17
- 1.0632 0 1 tcp 1040 ------- 0 0.0 1.0 11 18
- 1.06372 0 1 tcp 1040 ------- 0 0.0 1.0 12 19
- 1.06424 0 1 tcp 1040 ------- 0 0.0 1.0 13 20
- 1.06476 0 1 tcp 1040 ------- 0 0.0 1.0 14 21
r 1.07164 0 1 tcp 1040 ------- 0 0.0 1.0 7 14
+ 1.07164 1 0 ack 40 ------- 0 1.0 0.0 7 22
- 1.07164 1 0 ack 40 ------- 0 1.0 0.0 7 22
r 1.07216 0 1 tcp 1040 ------- 0 0.0 1.0 8 15
+ 1.07216 1 0 ack 40 ------- 0 1.0 0.0 8 23
- 1.07216 1 0 ack 40 ------- 0 1.0 0.0 8 23
r 1.07268 0 1 tcp 1040 ------- 0 0.0 1.0 9 16
+ 1.07268 1 0 ack 40 ------- 0 1.0 0.0 9 24
- 1.07268 1 0 ack 40 ------- 0 1.0 0.0 9 24
r 1.0732 0 1 tcp 1040 ------- 0 0.0 1.0 10 17
+ 1.0732 1 0 ack 40 ------- 0 1.0 0.0 10 25
- 1.0732 1 0 ack 40 ------- 0 1.0 0.0 10 25
r 1.07372 0 1 tcp 1040 ------- 0 0.0 1.0 11 18
+ 1.07372 1 0 ack 40 ------- 0 1.0 0.0 11 26
- 1.07372 1 0 ack 40 ------- 0 1.0 0.0 11 26
r 1.07424 0 1 tcp 1040 ------- 0 0.0 1.0 12 19
+ 1.07424 1 0 ack 40 ------- 0 1.0 0.0 12 27
- 1.07424 1 0 ack 40 ------- 0 1.0 0.0 12 27
r 1.07476 0 1 tcp 1040 ------- 0 0.0 1.0 13 20
+ 1.07476 1 0 ack 40 ------- 0 1.0 0.0 13 28
- 1.07476 1 0 ack 40 ------- 0 1.0 0.0 13 28
r 1.07528 0 1 tcp 1040 ------- 0 0.0 1.0 14 21
+ 1.07528 1 0 ack 40 ------- 0 1.0 0.0 14 29
- 1.07528 1 0 ack 40 ------- 0 1.0 0.0 14 29
r 1.08166 1 0 ack 40 ------- 0 1.0 0.0 7 22
+ 1.08166 0 1 tcp 1040 ------- 0 0.0 1.0 15 30
- 1.08166 0 1 tcp 1040 ------- 0 0.0 1.0 15 30
+ 1.08166 0 1 tcp 1040 ------- 0 0.0 1.0 16 31
r 1.08218 1 0 ack 40 ------- 0 1.0 0.0 8 23
+ 1.08218 0 1 tcp 1040 ------- 0 0.0 1.0 17 32
+ 1.08218 0 1 tcp 1040 ------- 0 0.0 1.0 18 33
- 1.08218 0 1 tcp 1040 ------- 0 0.0 1.0 16 31
r 1.0827 1 0 ack 40 ------- 0 1.0 0.0 9 24
+ 1.0827 0 1 tcp 1040 ------- 0 0.0 1.0 19 34
+ 1.0827 0 1 tcp 1040 ------- 0 0.0 1.0 20 35
- 1.0827 0 1 tcp 1040 ------- 0 0.0 1.0 17 32
r 1.08322 1 0 ack 40 ------- 0 1.0 0.0 10 25
+ 1.08322 0 1 tcp 1040 ------- 0 0.0 1.0 21 36
+ 1.08322 0 1 tcp 1040 ------- 0 0.0 1.0 22 37
- 1.08322 0 1 tcp 1040 ------- 0 0.0 1.0 18 33
r 1.08374 1 0 ack 40 ------- 0 1.0 0.0 11 26
+ 1.08374 0 1 tcp 1040 ------- 0 0.0 1.0 23 38
+ 1.08374 0 1 tcp 1040 ------- 0 0.0 1.0 24 39
- 1.08374 0 1 tcp 1040 ------- 0 0.0 1.0 19 34
r 1.08426 1 0 ack 40 ------- 0 1.0 0.0 12 27
+ 1.08426 0 1 tcp 1040 ------- 0 0.0 1.0 25 40
+ 1.08426 0 1 tcp 1040 ------- 0 0.0 1.0 26 41
- 1.08426 0 1 tcp 1040 ------- 0 0.0 1.0 20 35
r 1.08478 1 0 ack 40 ------- 0 1.0 0.0 13 28
+ 1.08478 0 1 tcp 1040 ------- 0 0.0 1.0 27 42
+ 1.08478 0 1 tcp 1040 ------- 0 0.0 1.0 28 43
- 1.08478 0 1 tcp 1040 ------- 0 0.0 1.0 21 36
r 1.0853 1 0 ack 40 ------- 0 1.0 0.0 14 29
+ 1.0853 0 1 tcp 1040 ------- 0 0.0 1.0 29 44
+ 1.0853 0 1 tcp 1040 ------- 0 0.0 1.0 30 45
- 1.0853 0 1 tcp 1040 ------- 0 0.0 1.0 22 37
- 1.08582 0 1 tcp 1040 ------- 0 0.0 1.0 23 38
- 1.08634 0 1 tcp 1040 ------- 0 0.0 1.0 24 39
- 1.08686 0 1 tcp 1040 ------- 0 0.0 1.0 25 40
- 1.08738 0 1 tcp 1040 ------- 0 0.0 1.0 26 41
- 1.0879 0 1 tcp 1040 ------- 0 0.0 1.0 27 42
- 1.08842 0 1 tcp 1040 ------- 0 0.0 1.0 28 43
- 1.08894 0 1 tcp 1040 ------- 0 0.0 1.0 29 44
- 1.08946 0 1 tcp 1040 ------- 0 0.0 1.0 30 45
r 1.09218 0 1 tcp 1040 ------- 0 0.0 1.0 15 30
+ 1.09218 1 0 ack 40 ------- 0 1.0 0.0 15 46
- 1.09218 1 0 ack 40 ------- 0 1.0 0.0 15 46
r 1.0927 0 1 tcp 1040 ------- 0 0.0 1.0 16 31
+ 1.0927 1 0 ack 40 ------- 0 1.0 0.0 16 47
- 1.0927 1 0 ack 40 ------- 0 1.0 0.0 16 47
r 1.09322 0 1 tcp 1040 ------- 0 0.0 1.0 17 32
+ 1.09322 1 0 ack 40 ------- 0 1.0 0.0 17 48
- 1.09322 1 0 ack 40 ------- 0 1.0 0.0 17 48
r 1.09374 0 1 tcp 1040 ------- 0 0.0 1.0 18 33
+ 1.09374 1 0 ack 40 ------- 0 1.0 0.0 18 49
- 1.09374 1 0 ack 40 ------- 0 1.0 0.0 18 49
r 1.09426 0 1 tcp 1040 ------- 0 0.0 1.0 19 34
+ 1.09426 1 0 ack 40 ------- 0 1.0 0.0 19 50
- 1.09426 1 0 ack 40 ------- 0 1.0 0.0 19 50
r 1.09478 0 1 tcp 1040 ------- 0 0.0 1.0 20 35
+ 1.09478 1 0 ack 40 ------- 0 1.0 0.0 20 51
- 1.09478 1 0 ack 40 ------- 0 1.0 0.0 20 51
r 1.0953 0 1 tcp 1040 ------- 0 0.0 1.0 21 36
+ 1.0953 1 0 ack 40 ------- 0 1.0 0.0 21 52
- 1.0953 1 0 ack 40 ------- 0 1.0 0.0 21 52
r 1.09582 0 1 tcp 1040 ------- 0 0.0 1.0 22 37
+ 1.09582 1 0 ack 40 ------- 0 1.0 0.0 22 53
- 1.09582 1 0 ack 40 ------- 0 1.0 0.0 22 53
r 1.09634 0 1 tcp 1040 ------- 0 0.0 1.0 23 38
+ 1.09634 1 0 ack 40 ------- 0 1.0 0.0 23 54
- 1.09634 1 0 ack 40 ------- 0 1.0 0.0 23 54
r 1.09686 0 1 tcp 1040 ------- 0 0.0 1.0 24 39
+ 1.09686 1 0 ack 40 ------- 0 1.0 0.0 24 55
- 1.09686 1 0 ack 40 ------- 0 1.0 0.0 24 55
r 1.09738 0 1 tcp 1040 ------- 0 0.0 1.0 25 40
+ 1.09738 1 0 ack 40 ------- 0 1.0 0.0 25 56
- 1.09738 1 0 ack 40 ------- 0 1.0 0.0 25 56
r 1.0979 0 1 tcp 1040 ------- 0 0.0 1.0 26 41
+ 1.0979 1 0 ack 40 ------- 0 1.0 0.0 26 57
- 1.0979 1 0 ack 40 ------- 0 1.0 0.0 26 57
r 1.09842 0 1 tcp 1040 ------- 0 0.0 1.0 27 42
+ 1.09842 1 0 ack 40 ------- 0 1.0 0.0 27 58
- 1.09842 1 0 ack 40 ------- 0 1.0 0.0 27 58
r 1.09894 0 1 tcp 1040 ------- 0 0.0 1.0 28 43
+ 1.09894 1 0 ack 40 ------- 0 1.0 0.0 28 59
- 1.09894 1 0 ack 40 ------- 0 1.0 0.0 28 59
r 1.09946 0 1 tcp 1040 ------- 0 0.0 1.0 29 44
+ 1.09946 1 0 ack 40 ------- 0 1.0 0.0 29 60
- 1.09946 1 0 ack 40 ------- 0 1.0 0.0 29 60
r 1.09998 0 1 tcp 1040 ------- 0 0.0 1.0 30 45
+ 1.09998 1 0 ack 40 ------- 0 1.0 0.0 30 61
- 1.09998 1 0 ack 40 ------- 0 1.0 0.0 30 61
r 1.1022 1 0 ack 40 ------- 0 1.0 0.0 15 46
+ 1.1022 0 1 tcp 1040 ------- 0 0.0 1.0 31 62
- 1.1022 0 1 tcp 1040 ------- 0 0.0 1.0 31 62
+ 1.1022 0 1 tcp 1040 ------- 0 0.0 1.0 32 63
r 1.10272 1 0 ack 40 ------- 0 1.0 0.0 16 47
+ 1.10272 0 1 tcp 1040 ------- 0 0.0 1.0 33 64
+ 1.10272 0 1 tcp 1040 ------- 0 0.0 1.0 34 65
- 1.10272 0 1 tcp 1040 ------- 0 0.0 1.0 32 63
r 1.10324 1 0 ack 40 ------- 0 1.0 0.0 17 48
+ 1.10324 0 1 tcp 1040 ------- 0 0.0 1.0 35 66
+ 1.10324 0 1 tcp 1040 ------- 0 0.0 1.0 36 67
- 1.10324 0 1 tcp 1040 ------- 0 0.0 1.0 33 64
r 1.10376 1 0 ack 40 ------- 0 1.0 0.0 18 49
+ 1.10376 0 1 tcp 1040 ------- 0 0.0 1.0 37 68
+ 1.10376 0 1 tcp 1040 ------- 0 0.0 1.0 38 69
- 1.10376 0 1 tcp 1040 ------- 0 0.0 1.0 34 65
r 1.10428 1 0 ack 40 ------- 0 1.0 0.0 19 50
+ 1.10428 0 1 tcp 1040 ------- 0 0.0 1.0 39 70
- 1.10428 0 1 tcp 1040 ------- 0 0.0 1.0 35 66
r 1.1048 1 0 ack 40 ------- 0 1.0 0.0 20 51
+ 1.1048 0 1 tcp 1040 ------- 0 0.0 1.0 40 71
- 1.1048 0 1 tcp 1040 ------- 0 0.0 1.0 36 67
r 1.10532 1 0 ack 40 ------- 0 1.0 0.0 21 52
+ 1.10532 0 1 tcp 1040 ------- 0 0.0 1.0 41 72
- 1.10532 0 1 tcp 1040 ------- 0 0.0 1.0 37 68
r 1.10584 1 0 ack 40 ------- 0 1.0 0.0 22 53
+ 1.10584 0 1 tcp 1040 ------- 0 0.0 1.0 42 73
- 1.10584 0 1 tcp 1040 ------- 0 0.0 1.0 38 69
r 1.10636 1 0 ack 40 ------- 0 1.0 0.0 23 54
+ 1.10636 0 1 tcp 1040 ------- 0 0.0 1.0 43 74
- 1.10636 0 1 tcp 1040 ------- 0 0.0 1.0 39 70
r 1.10688 1 0 ack 40 ------- 0 1.0 0.0 24 55
+ 1.10688 0 1 tcp 1040 ------- 0 0.0 1.0 44 75
- 1.10688 0 1 tcp 1040 ------- 0 0.0 1.0 40 71
r 1.1074 1 0 ack 40 ------- 0 1.0 0.0 25 56
+ 1.1074 0 1 tcp 1040 ------- 0 0.0 1.0 45 76
- 1.1074 0 1 tcp 1040 ------- 0 0.0 1.0 41 72
r 1.10792 1 0 ack 40 ------- 0 1.0 0.0 26 57
+ 1.10792 0 1 tcp 1040 ------- 0 0.0 1.0 46 77
- 1.10792 0 1 tcp 1040 ------- 0 0.0 1.0 42 73
r 1.10844 1 0 ack 40 ------- 0 1.0 0.0 27 58
+ 1.10844 0 1 tcp 1040 ------- 0 0.0 1.0 47 78
- 1.10844 0 1 tcp 1040 ------- 0 0.0 1.0 43 74
r 1.10896 1 0 ack 40 ------- 0 1.0 0.0 28 59
+ 1.10896 0 1 tcp 1040 ------- 0 0.0 1.0 48 79
- 1.10896 0 1 tcp 1040 ------- 0 0.0 1.0 44 75
r 1.10948 1 0 ack 40 ------- 0 1.0 0.0 29 60
+ 1.10948 0 1 tcp 1040 ------- 0 0.0 1.0 49 80
- 1.10948 0 1 tcp 1040 ------- 0 0.0 1.0 45 76
r 1.11 1 0 ack 40 ------- 0 1.0 0.0 30 61
+ 1.11 0 1 tcp 1040 ------- 0 0.0 1.0 50 81
- 1.11 0 1 tcp 1040 ------- 0 0.0 1.0 46 77
- 1.11052 0 1 tcp 1040 ------- 0 0.0 1.0 47 78
- 1.11104 0 1 tcp 1040 ------- 0 0.0 1.0 48 79
- 1.11156 0 1 tcp 1040 ------- 0 0.0 1.0 49 80
- 1.11208 0 1 tcp 1040 ------- 0 0.0 1.0 50 81
r 1.11272 0 1 tcp 1040 ------- 0 0.0 1.0 31 62
+ 1.11272 1 0 ack 40 ------- 0 1.0 0.0 31 82
- 1.11272 1 0 ack 40 ------- 0 1.0 0.0 31 82
r 1.11324 0 1 tcp 1040 ------- 0 0.0 1.0 32 63
+ 1.11324 1 0 ack 40 ------- 0 1.0 0.0 32 83
- 1.11324 1 0 ack 40 ------- 0 1.0 0.0 32 83
r 1.11376 0 1 tcp 1040 ------- 0 0.0 1.0 33 64
+ 1.11376 1 0 ack 40 ------- 0 1.0 0.0 33 84
- 1.11376 1 0 ack 40 ------- 0 1.0 0.0 33 84
r 1.11428 0 1 tcp 1040 ------- 0 0.0 1.0 34 65
+ 1.11428 1 0 ack 40 ------- 0 1.0 0.0 34 85
- 1.11428 1 0 ack 40 ------- 0 1.0 0.0 34 85
r 1.1148 0 1 tcp 1040 ------- 0 0.0 1.0 35 66
+ 1.1148 1 0 ack 40 ------- 0 1.0 0.0 35 86
- 1.1148 1 0 ack 40 ------- 0 1.0 0.0 35 86
r 1.11532 0 1 tcp 1040 ------- 0 0.0 1.0 36 67
+ 1.11532 1 0 ack 40 ------- 0 1.0 0.0 36 87
- 1.11532 1 0 ack 40 ------- 0 1.0 0.0 36 87
r 1.11584 0 1 tcp 1040 ------- 0 0.0 1.0 37 68
+ 1.11584 1 0 ack 40 ------- 0 1.0 0.0 37 88
- 1.11584 1 0 ack 40 ------- 0 1.0 0.0 37 88
r 1.11636 0 1 tcp 1040 ------- 0 0.0 1.0 38 69
+ 1.11636 1 0 ack 40 ------- 0 1.0 0.0 38 89
- 1.11636 1 0 ack 40 ------- 0 1.0 0.0 38 89
r 1.11688 0 1 tcp 1040 ------- 0 0.0 1.0 39 70
+ 1.11688 1 0 ack 40 ------- 0 1.0 0.0 39 90
- 1.11688 1 0 ack 40 ------- 0 1.0 0.0 39 90
r 1.1174 0 1 tcp 1040 ------- 0 0.0 1.0 40 71
+ 1.1174 1 0 ack 40 ------- 0 1.0 0.0 40 91
- 1.1174 1 0 ack 40 ------- 0 1.0 0.0 40 91
r 1.11792 0 1 tcp 1040 ------- 0 0.0 1.0 41 72
+ 1.11792 1 0 ack 40 ------- 0 1.0 0.0 41 92
- 1.11792 1 0 ack 40 ------- 0 1.0 0.0 41 92
r 1.11844 0 1 tcp 1040 ------- 0 0.0 1.0 42 73
+ 1.11844 1 0 ack 40 ------- 0 1.0 0.0 42 93
- 1.11844 1 0 ack 40 ------- 0 1.0 0.0 42 93
r 1.11896 0 1 tcp 1040 ------- 0 0.0 1.0 43 74
+ 1.11896 1 0 ack 40 ------- 0 1.0 0.0 43 94
- 1.11896 1 0 ack 40 ------- 0 1.0 0.0 43 94
r 1.11948 0 1 tcp 1040 ------- 0 0.0 1.0 44 75
+ 1.11948 1 0 ack 40 ------- 0 1.0 0.0 44 95
- 1.11948 1 0 ack 40 ------- 0 1.0 0.0 44 95
r 1.12 0 1 tcp 1040 ------- 0 0.0 1.0 45 76
+ 1.12 1 0 ack 40 ------- 0 1.0 0.0 45 96
- 1.12 1 0 ack 40 ------- 0 1.0 0.0 45 96
r 1.12052 0 1 tcp 1040 ------- 0 0.0 1.0 46 77
+ 1.12052 1 0 ack 40 ------- 0 1.0 0.0 46 97
- 1.12052 1 0 ack 40 ------- 0 1.0 0.0 46 97
r 1.12104 0 1 tcp 1040 ------- 0 0.0 1.0 47 78
+ 1.12104 1 0 ack 40 ------- 0 1.0 0.0 47 98
- 1.12104 1 0 ack 40 ------- 0 1.0 0.0 47 98
r 1.12156 0 1 tcp 1040 ------- 0 0.0 1.0 48 79
+ 1.12156 1 0 ack 40 ------- 0 1.0 0.0 48 99
- 1.12156 1 0 ack 40 ------- 0 1.0 0.0 48 99
r 1.12208 0 1 tcp 1040 ------- 0 0.0 1.0 49 80
+ 1.12208 1 0 ack 40 ------- 0 1.0 0.0 49 100
- 1.12208 1 0 ack 40 ------- 0 1.0 0.0 49 100
r 1.1226 0 1 tcp 1040 ------- 0 0.0 1.0 50 81
+ 1.1226 1 0 ack 40 ------- 0 1.0 0.0 50 101
- 1.1226 1 0 ack 40 ------- 0 1.0 0.0 50 101
r 1.12274 1 0 ack 40 ------- 0 1.0 0.0 31 82
+ 1.12274 0 1 tcp 1040 ------- 0 0.0 1.0 51 102
- 1.12274 0 1 tcp 1040 ------- 0 0.0 1.0 51 102
r 1.12326 1 0 ack 40 ------- 0 1.0 0.0 32 83
+ 1.12326 0 1 tcp 1040 ------- 0 0.0 1.0 52 103
- 1.12326 0 1 tcp 1040 ------- 0 0.0 1.0 52 103
r 1.12378 1 0 ack 40 ------- 0 1.0 0.0 33 84
+ 1.12378 0 1 tcp 1040 ------- 0 0.0 1.0 53 104
- 1.12378 0 1 tcp 1040 ------- 0 0.0 1.0 53 104
r 1.1243 1 0 ack 40 ------- 0 1.0 0.0 34 85
+ 1.1243 0 1 tcp 1040 ------- 0 0.0 1.0 54 105
- 1.1243 0 1 tcp 1040 ------- 0 0.0 1.0 54 105
r 1.12482 1 0 ack 40 ------- 0 1.0 0.0 35 86
+ 1.12482 0 1 tcp 1040 ------- 0 0.0 1.0 55 106
- 1.12482 0 1 tcp 1040 ------- 0 0.0 1.0 55 106
r 1.12534 1 0 ack 40 ------- 0 1.0 0.0 36 87
+ 1.12534 0 1 tcp 1040 ------- 0 0.0 1.0 56 107
- 1.12534 0 1 tcp 1040 ------- 0 0.0 1.0 56 107
r 1.12586 1 0 ack 40 ------- 0 1.0 0.0 37 88
+ 1.12586 0 1 tcp 1040 ------- 0 0.0 1.0 57 108
- 1.12586 0 1 tcp 1040 ------- 0 0.0 1.0 57 108
r 1.12638 1 0 ack 40 ------- 0 1.0 0.0 38 89
+ 1.12638 0 1 tcp 1040 ------- 0 0.0 1.0 58 109
- 1.12638 0 1 tcp 1040 ------- 0 0.0 1.0 58 109
r 1.1269 1 0 ack 40 ------- 0 1.0 0.0 39 90
+ 1.1269 0 1 tcp 1040 ------- 0 0.0 1.0 59 110
- 1.1269 0 1 tcp 1040 ------- 0 0.0 1.0 59 110
r 1.12742 1 0 ack 40 ------- 0 1.0 0.0 40 91
+ 1.12742 0 1 tcp 1040 ------- 0 0.0 1.0 60 111
- 1.12742 0 1 tcp 1040 ------- 0 0.0 1.0 60 111
r 1.12794 1 0 ack 40 ------- 0 1.0 0.0 41 92
+ 1.12794 0 1 tcp 1040 ------- 0 0.0 1.0 61 112
- 1.12794 0 1 tcp 1040 ------- 0 0.0 1.0 61 112
r 1.12846 1 0 ack 40 ------- 0 1.0 0.0 42 93
+ 1.12846 0 1 tcp 1040 ------- 0 0.0 1.0 62 113
- 1.12846 0 1 tcp 1040 ------- 0 0.0 1.0 62 113
r 1.12898 1 0 ack 40 ------- 0 1.0 0.0 43 94
+ 1.12898 0 1 tcp 1040 ------- 0 0.0 1.0 63 114
- 1.12898 0 1 tcp 1040 ------- 0 0.0 1.0 63 114
r 1.1295 1 0 ack 40 ------- 0 1.0 0.0 44 95
+ 1.1295 0 1 tcp 1040 ------- 0 0.0 1.0 64 115
- 1.1295 0 1 tcp 1040 ------- 0 0.0 1.0 64 115
r 1.13002 1 0 ack 40 ------- 0 1.0 0.0 45 96
+ 1.13002 0 1 tcp 1040 ------- 0 0.0 1.0 65 116
- 1.13002 0 1 tcp 1040 ------- 0 0.0 1.0 65 116
r 1.13054 1 0 ack 40 ------- 0 1.0 0.0 46 97
+ 1.13054 0 1 tcp 1040 ------- 0 0.0 1.0 66 117
- 1.13054 0 1 tcp 1040 ------- 0 0.0 1.0 66 117
r 1.13106 1 0 ack 40 ------- 0 1.0 0.0 47 98
+ 1.13106 0 1 tcp 1040 ------- 0 0.0 1.0 67 118
- 1.13106 0 1 tcp 1040 ------- 0 0.0 1.0 67 118
r 1.13158 1 0 ack 40 ------- 0 1.0 0.0 48 99
+ 1.13158 0 1 tcp 1040 ------- 0 0.0 1.0 68 119
- 1.13158 0 1 tcp 1040 ------- 0 0.0 1.0 68 119
r 1.1321 1 0 ack 40 ------- 0 1.0 0.0 49 100
+ 1.1321 0 1 tcp 1040 ------- 0 0.0 1.0 69 120
- 1.1321 0 1 tcp 1040 ------- 0 0.0 1.0 69 120
r 1.13262 1 0 ack 40 ------- 0 1.0 0.0 50 101
+ 1.13262 0 1 tcp 1040 ------- 0 0.0 1.0 70 121
- 1.13262 0 1 tcp 1040 ------- 0 0.0 1.0 70 121
r 1.13326 0 1 tcp 1040 ------- 0 0.0 1.0 51 102
+ 1.13326 1 0 ack 40 ------- 0 1.0 0.0 51 122
- 1.13326 1 0 ack 40 ------- 0 1.0 0.0 51 122
r 1.13378 0 1 tcp 1040 ------- 0 0.0 1.0 52 103
+ 1.13378 1 0 ack 40 ------- 0 1.0 0.0 52 123
- 1.13378 1 0 ack 40 ------- 0 1.0 0.0 52 123
r 1.1343 0 1 tcp 1040 ------- 0 0.0 1.0 53 104
+ 1.1343 1 0 ack 40 ------- 0 1.0 0.0 53 124
- 1.1343 1 0 ack 40 ------- 0 1.0 0.0 53 124
r 1.13482 0 1 tcp 1040 ------- 0 0.0 1.0 54 105
+ 1.13482 1 0 ack 40 ------- 0 1.0 0.0 54 125
- 1.13482 1 0 ack 40 ------- 0 1.0 0.0 54 125
r 1.13534 0 1 tcp 1040 ------- 0 0.0 1.0 55 106
+ 1.13534 1 0 ack 40 ------- 0 1.0 0.0 55 126
- 1.13534 1 0 ack 40 ------- 0 1.0 0.0 55 126
r 1.13586 0 1 tcp 1040 ------- 0 0.0 1.0 56 107
+ 1.13586 1 0 ack 40 ------- 0 1.0 0.0 56 127
- 1.13586 1 0 ack 40 ------- 0 1.0 0.0 56 127
r 1.13638 0 1 tcp 1040 ------- 0 0.0 1.0 57 108
+ 1.13638 1 0 ack 40 ------- 0 1.0 0.0 57 128
- 1.13638 1 0 ack 40 ------- 0 1.0 0.0 57 128
r 1.1369 0 1 tcp 1040 ------- 0 0.0 1.0 58 109
+ 1.1369 1 0 ack 40 ------- 0 1.0 0.0 58 129
- 1.1369 1 0 ack 40 ------- 0 1.0 0.0 58 129
r 1.13742 0 1 tcp 1040 ------- 0 0.0 1.0 59 110
+ 1.13742 1 0 ack 40 ------- 0 1.0 0.0 59 130
- 1.13742 1 0 ack 40 ------- 0 1.0 0.0 59 130
r 1.13794 0 1 tcp 1040 ------- 0 0.0 1.0 60 111
+ 1.13794 1 0 ack 40 ------- 0 1.0 0.0 60 131
- 1.13794 1 0 ack 40 ------- 0 1.0 0.0 60 131
r 1.13846 0 1 tcp 1040 ------- 0 0.0 1.0 61 112
+ 1.13846 1 0 ack 40 ------- 0 1.0 0.0 61 132
- 1.13846 1 0 ack 40 ------- 0 1.0 0.0 61 132
r 1.13898 0 1 tcp 1040 ------- 0 0.0 1.0 62 113
+ 1.13898 1 0 ack 40 ------- 0 1.0 0.0 62 133
- 1.13898 1 0 ack 40 ------- 0 1.0 0.0 62 133
r 1.1395 0 1 tcp 1040 ------- 0 0.0 1.0 63 114
+ 1.1395 1 0 ack 40 ------- 0 1.0 0.0 63 134
- 1.1395 1 0 ack 40 ------- 0 1.0 0.0 63 134
r 1.14002 0 1 tcp 1040 ------- 0 0.0 1.0 64 115
+ 1.14002 1 0 ack 40 ------- 0 1.0 0.0 64 135
- 1.14002 1 0 ack 40 ------- 0 1.0 0.0 64 135
r 1.14054 0 1 tcp 1040 ------- 0 0.0 1.0 65 116
+ 1.14054 1 0 ack 40 ------- 0 1.0 0.0 65 136
- 1.14054 1 0 ack 40 ------- 0 1.0 0.0 65 136
r 1.14106 0 1 tcp 1040 ------- 0 0.0 1.0 66 117
+ 1.14106 1 0 ack 40 ------- 0 1.0 0.0 66 137
- 1.14106 1 0 ack 40 ------- 0 1.0 0.0 66 137
r 1.14158 0 1 tcp 1040 ------- 0 0.0 1.0 67 118
+ 1.14158 1 0 ack 40 ------- 0 1.0 0.0 67 138
- 1.14158 1 0 ack 40 ------- 0 1.0 0.0 67 138
r 1.1421 0 1 tcp 1040 ------- 0 0.0 1.0 68 119
+ 1.1421 1 0 ack 40 ------- 0 1.0 0.0 68 139
- 1.1421 1 0 ack 40 ------- 0 1.0 0.0 68 139
r 1.14262 0 1 tcp 1040 ------- 0 0.0 1.0 69 120
+ 1.14262 1 0 ack 40 ------- 0 1.0 0.0 69 140
- 1.14262 1 0 ack 40 ------- 0 1.0 0.0 69 140
r 1.14314 0 1 tcp 1040 ------- 0 0.0 1.0 70 121
+ 1.14314 1 0 ack 40 ------- 0 1.0 0.0 70 141
- 1.14314 1 0 ack 40 ------- 0 1.0 0.0 70 141
r 1.14328 1 0 ack 40 ------- 0 1.0 0.0 51 122
+ 1.14328 0 1 tcp 1040 ------- 0 0.0 1.0 71 142
- 1.14328 0 1 tcp 1040 ------- 0 0.0 1.0 71 142
r 1.1438 1 0 ack 40 ------- 0 1.0 0.0 52 123
+ 1.1438 0 1 tcp 1040 ------- 0 0.0 1.0 72 143
- 1.1438 0 1 tcp 1040 ------- 0 0.0 1.0 72 143
r 1.14432 1 0 ack 40 ------- 0 1.0 0.0 53 124
+ 1.14432 0 1 tcp 1040 ------- 0 0.0 1.0 73 144
- 1.14432 0 1 tcp 1040 ------- 0 0.0 1.0 73 144
r 1.14484 1 0 ack 40 ------- 0 1.0 0.0 54 125
+ 1.14484 0 1 tcp 1040 ------- 0 0.0 1.0 74 145
- 1.14484 0 1 tcp 1040 ------- 0 0.0 1.0 74 145
r 1.14536 1 0 ack 40 ------- 0 1.0 0.0 55 126
+ 1.14536 0 1 tcp 1040 ------- 0 0.0 1.0 75 146
- 1.14536 0 1 tcp 1040 ------- 0 0.0 1.0 75 146
r 1.14588 1 0 ack 40 ------- 0 1.0 0.0 56 127
+ 1.14588 0 1 tcp 1040 ------- 0 0.0 1.0 76 147
- 1.14588 0 1 tcp 1040 ------- 0 0.0 1.0 76 147
r 1.1464 1 0 ack 40 ------- 0 1.0 0.0 57 128
+ 1.1464 0 1 tcp 1040 ------- 0 0.0 1.0 77 148
- 1.1464 0 1 tcp 1040 ------- 0 0.0 1.0 77 148
r 1.14692 1 0 ack 40 ------- 0 1.0 0.0 58 129
+ 1.14692 0 1 tcp 1040 ------- 0 0.0 1.0 78 149
- 1.14692 0 1 tcp 1040 ------- 0 0.0 1.0 78 149
r 1.14744 1 0 ack 40 ------- 0 1.0 0.0 59 130
+ 1.14744 0 1 tcp 1040 ------- 0 0.0 1.0 79 150
- 1.14744 0 1 tcp 1040 ------- 0 0.0 1.0 79 150
r 1.14796 1 0 ack 40 ------- 0 1.0 0.0 60 131
+ 1.14796 0 1 tcp 1040 ------- 0 0.0 1.0 80 151
- 1.14796 0 1 tcp 1040 ------- 0 0.0 1.0 80 151
r 1.14848 1 0 ack 40 ------- 0 1.0 0.0 61 132
+ 1.14848 0 1 tcp 1040 ------- 0 0.0 1.0 81 152
- 1.14848 0 1 tcp 1040 ------- 0 0.0 1.0 81 152
r 1.149 1 0 ack 40 ------- 0 1.0 0.0 62 133
+ 1.149 0 1 tcp 1040 ------- 0 0.0 1.0 82 153
- 1.149 0 1 tcp 1040 ------- 0 0.0 1.0 82 153
r 1.14952 1 0 ack 40 ------- 0 1.0 0.0 63 134
+ 1.14952 0 1 tcp 1040 ------- 0 0.0 1.0 83 154
- 1.14952 0 1 tcp 1040 ------- 0 0.0 1.0 83 154
r 1.15004 1 0 ack 40 ------- 0 1.0 0.0 64 135
+ 1.15004 0 1 tcp 1040 ------- 0 0.0 1.0 84 155
- 1.15004 0 1 tcp 1040 ------- 0 0.0 1.0 84 155
r 1.15056 1 0 ack 40 ------- 0 1.0 0.0 65 136
+ 1.15056 0 1 tcp 1040 ------- 0 0.0 1.0 85 156
- 1.15056 0 1 tcp 1040 ------- 0 0.0 1.0 85 156
r 1.15108 1 0 ack 40 ------- 0 1.0 0.0 66 137
+ 1.15108 0 1 tcp 1040 ------- 0 0.0 1.0 86 157
- 1.15108 0 1 tcp 1040 ------- 0 0.0 1.0 86 157
r 1.1516 1 0 ack 40 ------- 0 1.0 0.0 67 138
+ 1.1516 0 1 tcp 1040 ------- 0 0.0 1.0 87 158
- 1.1516 0 1 tcp 1040 ------- 0 0.0 1.0 87 158
r 1.15212 1 0 ack 40 ------- 0 1.0 0.0 68 139
+ 1.15212 0 1 tcp 1040 ------- 0 0.0 1.0 88 159
- 1.15212 0 1 tcp 1040 ------- 0 0.0 1.0 88 159
r 1.15264 1 0 ack 40 ------- 0 1.0 0.0 69 140
+ 1.15264 0 1 tcp 1040 ------- 0 0.0 1.0 89 160
- 1.15264 0 1 tcp 1040 ------- 0 0.0 1.0 89 160
r 1.15316 1 0 ack 40 ------- 0 1.0 0.0 70 141
+ 1.15316 0 1 tcp 1040 ------- 0 0.0 1.0 90 161
- 1.15316 0 1 tcp 1040 ------- 0 0.0 1.0 90 161
r 1.1538 0 1 tcp 1040 ------- 0 0.0 1.0 71 142
+ 1.1538 1 0 ack 40 ------- 0 1.0 0.0 71 162
- 1.1538 1 0 ack 40 ------- 0 1.0 0.0 71 162
r 1.15432 0 1 tcp 1040 ------- 0 0.0 1.0 72 143
+ 1.15432 1 0 ack 40 ------- 0 1.0 0.0 72 163
- 1.15432 1 0 ack 40 ------- 0 1.0 0.0 72 163
r 1.15484 0 1 tcp 1040 ------- 0 0.0 1.0 73 144
+ 1.15484 1 0 ack 40 ------- 0 1.0 0.0 73 164
- 1.15484 1 0 ack 40 ------- 0 1.0 0.0 73 164
r 1.15536 0 1 tcp 1040 ------- 0 0.0 1.0 74 145
+ 1.15536 1 0 ack 40 ------- 0 1.0 0.0 74 165
- 1.15536 1 0 ack 40 ------- 0 1.0 0.0 74 165
r 1.15588 0 1 tcp 1040 ------- 0 0.0 1.0 75 146
+ 1.15588 1 0 ack 40 ------- 0 1.0 0.0 75 166
- 1.15588 1 0 ack 40 ------- 0 1.0 0.0 75 166
r 1.1564 0 1 tcp 1040 ------- 0 0.0 1.0 76 147
+ 1.1564 1 0 ack 40 ------- 0 1.0 0.0 76 167
- 1.1564 1 0 ack 40 ------- 0 1.0 0.0 76 167
r 1.15692 0 1 tcp 1040 ------- 0 0.0 1.0 77 148
+ 1.15692 1 0 ack 40 ------- 0 1.0 0.0 77 168
- 1.15692 1 0 ack 40 ------- 0 1.0 0.0 77 168
r 1.15744 0 1 tcp 1040 ------- 0 0.0 1.0 78 149
+ 1.15744 1 0 ack 40 ------- 0 1.0 0.0 78 169
- 1.15744 1 0 ack 40 ------- 0 1.0 0.0 78 169
r 1.15796 0 1 tcp 1040 ------- 0 0.0 1.0 79 150
+ 1.15796 1 0 ack 40 ------- 0 1.0 0.0 79 170
- 1.15796 1 0 ack 40 ------- 0 1.0 0.0 79 170
r 1.15848 0 1 tcp 1040 ------- 0 0.0 1.0 80 151
+ 1.15848 1 0 ack 40 ------- 0 1.0 0.0 80 171
- 1.15848 1 0 ack 40 ------- 0 1.0 0.0 80 171
r 1.159 0 1 tcp 1040 ------- 0 0.0 1.0 81 152
+ 1.159 1 0 ack 40 ------- 0 1.0 0.0 81 172
- 1.159 1 0 ack 40 ------- 0 1.0 0.0 81 172
r 1.15952 0 1 tcp 1040 ------- 0 0.0 1.0 82 153
+ 1.15952 1 0 ack 40 ------- 0 1.0 0.0 82 173
- 1.15952 1 0 ack 40 ------- 0 1.0 0.0 82 173
r 1.16004 0 1 tcp 1040 ------- 0 0.0 1.0 83 154
+ 1.16004 1 0 ack 40 ------- 0 1.0 0.0 83 174
- 1.16004 1 0 ack 40 ------- 0 1.0 0.0 83 174
r 1.16056 0 1 tcp 1040 ------- 0 0.0 1.0 84 155
+ 1.16056 1 0 ack 40 ------- 0 1.0 0.0 84 175
- 1.16056 1 0 ack 40 ------- 0 1.0 0.0 84 175
r 1.16108 0 1 tcp 1040 ------- 0 0.0 1.0 85 156
+ 1.16108 1 0 ack 40 ------- 0 1.0 0.0 85 176
- 1.16108 1 0 ack 40 ------- 0 1.0 0.0 85 176
r 1.1616 0 1 tcp 1040 ------- 0 0.0 1.0 86 157
+ 1.1616 1 0 ack 40 ------- 0 1.0 0.0 86 177
- 1.1616 1 0 ack 40 ------- 0 1.0 0.0 86 177
r 1.16212 0 1 tcp 1040 ------- 0 0.0 1.0 87 158
+ 1.16212 1 0 ack 40 ------- 0 1.0 0.0 87 178
- 1.16212 1 0 ack 40 ------- 0 1.0 0.0 87 178
r 1.16264 0 1 tcp 1040 ------- 0 0.0 1.0 88 159
+ 1.16264 1 0 ack 40 ------- 0 1.0 0.0 88 179
- 1.16264 1 0 ack 40 ------- 0 1.0 0.0 88 179
r 1.16316 0 1 tcp 1040 ------- 0 0.0 1.0 89 160
+ 1.16316 1 0 ack 40 ------- 0 1.0 0.0 89 180
- 1.16316 1 0 ack 40 ------- 0 1.0 0.0 89 180
r 1.16368 0 1 tcp 1040 ------- 0 0.0 1.0 90 161
+ 1.16368 1 0 ack 40 ------- 0 1.0 0.0 90 181
- 1.16368 1 0 ack 40 ------- 0 1.0 0.0 90 181
r 1.16382 1 0 ack 40 ------- 0 1.0 0.0 71 162
+ 1.16382 0 1 tcp 1040 ------- 0 0.0 1.0 91 182
- 1.16382 0 1 tcp 1040 ------- 0 0.0 1.0 91 182
r 1.16434 1 0 ack 40 ------- 0 1.0 0.0 72 163
+ 1.16434 0 1 tcp 1040 ------- 0 0.0 1.0 92 183
- 1.16434 0 1 tcp 1040 ------- 0 0.0 1.0 92 183
r 1.16486 1 0 ack 40 ------- 0 1.0 0.0 73 164
+ 1.16486 0 1 tcp 1040 ------- 0 0.0 1.0 93 184
- 1.16486 0 1 tcp 1040 ------- 0 0.0 1.0 93 184
r 1.16538 1 0 ack 40 ------- 0 1.0 0.0 74 165
+ 1.16538 0 1 tcp 1040 ------- 0 0.0 1.0 94 185
- 1.16538 0 1 tcp 1040 ------- 0 0.0 1.0 94 185
r 1.1659 1 0 ack 40 ------- 0 1.0 0.0 75 166
+ 1.1659 0 1 tcp 1040 ------- 0 0.0 1.0 95 186
- 1.1659 0 1 tcp 1040 ------- 0 0.0 1.0 95 186
r 1.16642 1 0 ack 40 ------- 0 1.0 0.0 76 167
+ 1.16642 0 1 tcp 1040 ------- 0 0.0 1.0 96 187
- 1.16642 0 1 tcp 1040 ------- 0 0.0 1.0 96 187
r 1.16694 1 0 ack 40 ------- 0 1.0 0.0 77 168
+ 1.16694 0 1 tcp 1040 ------- 0 0.0 1.0 97 188
- 1.16694 0 1 tcp 1040 ------- 0 0.0 1.0 97 188
r 1.16746 1 0 ack 40 ------- 0 1.0 0.0 78 169
+ 1.16746 0 1 tcp 1040 ------- 0 0.0 1.0 98 189
- 1.16746 0 1 tcp 1040 ------- 0 0.0 1.0 98 189
r 1.16798 1 0 ack 40 ------- 0 1.0 0.0 79 170
+ 1.16798 0 1 tcp 1040 ------- 0 0.0 1.0 99 190
- 1.16798 0 1 tcp 1040 ------- 0 0.0 1.0 99 190
r 1.1685 1 0 ack 40 ------- 0 1.0 0.0 80 171
+ 1.1685 0 1 tcp 1040 ------- 0 0.0 1.0 100 191
- 1.1685 0 1 tcp 1040 ------- 0 0.0 1.0 100 191
r 1.16902 1 0 ack 40 ------- 0 1.0 0.0 81 172
+ 1.16902 0 1 tcp 1040 ------- 0 0.0 1.0 101 192
- 1.16902 0 1 tcp 1040 ------- 0 0.0 1.0 101 192
r 1.16954 1 0 ack 40 ------- 0 1.0 0.0 82 173
+ 1.16954 0 1 tcp 1040 ------- 0 0.0 1.0 102 193
- 1.16954 0 1 tcp 1040 ------- 0 0.0 1.0 102 193
r 1.17006 1 0 ack 40 ------- 0 1.0 0.0 83 174
+ 1.17006 0 1 tcp 1040 ------- 0 0.0 1.0 103 194
- 1.17006 0 1 tcp 1040 ------- 0 0.0 1.0 103 194
r 1.17058 1 0 ack 40 ------- 0 1.0 0.0 84 175
+ 1.17058 0 1 tcp 1040 ------- 0 0.0 1.0 104 195
- 1.17058 0 1 tcp 1040 ------- 0 0.0 1.0 104 195
r 1.1711 1 0 ack 40 ------- 0 1.0 0.0 85 176
+ 1.1711 0 1 tcp 1040 ------- 0 0.0 1.0 105 196
- 1.1711 0 1 tcp 1040 ------- 0 0.0 1.0 105 196
r 1.17162 1 0 ack 40 ------- 0 1.0 0.0 86 177
+ 1.17162 0 1 tcp 1040 ------- 0 0.0 1.0 106 197
- 1.17162 0 1 tcp 1040 ------- 0 0.0 1.0 106 197
r 1.17214 1 0 ack 40 ------- 0 1.0 0.0 87 178
+ 1.17214 0 1 tcp 1040 ------- 0 0.0 1.0 107 198
- 1.17214 0 1 tcp 1040 ------- 0 0.0 1.0 107 198
r 1.17266 1 0 ack 40 ------- 0 1.0 0.0 88 179
+ 1.17266 0 1 tcp 1040 ------- 0 0.0 1.0 108 199
- 1.17266 0 1 tcp 1040 ------- 0 0.0 1.0 108 199
r 1.17318 1 0 ack 40 ------- 0 1.0 0.0 89 180
+ 1.17318 0 1 tcp 1040 ------- 0 0.0 1.0 109 200
- 1.17318 0 1 tcp 1040 ------- 0 0.0 1.0 109 200
r 1.1737 1 0 ack 40 ------- 0 1.0 0.0 90 181
+ 1.1737 0 1 tcp 1040 ------- 0 0.0 1.0 110 201
- 1.1737 0 1 tcp 1040 ------- 0 0.0 1.0 110 201
r 1.17434 0 1 tcp 1040 ------- 0 0.0 1.0 91 182
+ 1.17434 1 0 ack 40 ------- 0 1.0 0.0 91 202
- 1.17434 1 0 ack 40 ------- 0 1.0 0.0 91 202
r 1.17486 0 1 tcp 1040 ------- 0 0.0 1.0 92 183
+ 1.17486 1 0 ack 40 ------- 0 1.0 0.0 92 203
- 1.17486 1 0 ack 40 ------- 0 1.0 0.0 92 203
r 1.17538 0 1 tcp 1040 ------- 0 0.0 1.0 93 184
+ 1.17538 1 0 ack 40 ------- 0 1.0 0.0 93 204
- 1.17538 1 0 ack 40 ------- 0 1.0 0.0 93 204
r 1.1759 0 1 tcp 1040 ------- 0 0.0 1.0 94 185
+ 1.1759 1 0 ack 40 ------- 0 1.0 0.0 94 205
- 1.1759 1 0 ack 40 ------- 0 1.0 0.0 94 205
r 1.17642 0 1 tcp 1040 ------- 0 0.0 1.0 95 186
+ 1.17642 1 0 ack 40 ------- 0 1.0 0.0 95 206
- 1.17642 1 0 ack 40 ------- 0 1.0 0.0 95 206
r 1.17694 0 1 tcp 1040 ------- 0 0.0 1.0 96 187
+ 1.17694 1 0 ack 40 ------- 0 1.0 0.0 96 207
- 1.17694 1 0 ack 40 ------- 0 1.0 0.0 96 207
r 1.17746 0 1 tcp 1040 ------- 0 0.0 1.0 97 188
+ 1.17746 1 0 ack 40 ------- 0 1.0 0.0 97 208
- 1.17746 1 0 ack 40 ------- 0 1.0 0.0 97 208
r 1.17798 0 1 tcp 1040 ------- 0 0.0 1.0 98 189
+ 1.17798 1 0 ack 40 ------- 0 1.0 0.0 98 209
- 1.17798 1 0 ack 40 ------- 0 1.0 0.0 98 209
r 1.1785 0 1 tcp 1040 ------- 0 0.0 1.0 99 190
+ 1.1785 1 0 ack 40 ------- 0 1.0 0.0 99 210
- 1.1785 1 0 ack 40 ------- 0 1.0 0.0 99 210
r 1.17902 0 1 tcp 1040 ------- 0 0.0 1.0 100 191
+ 1.17902 1 0 ack 40 ------- 0 1.0 0.0 100 211
- 1.17902 1 0 ack 40 ------- 0 1.0 0.0 100 211
r 1.17954 0 1 tcp 1040 ------- 0 0.0 1.0 101 192
+ 1.17954 1 0 ack 40 ------- 0 1.0 0.0 101 212
- 1.17954 1 0 ack 40 ------- 0 1.0 0.0 101 212
r 1.18006 0 1 tcp 1040 ------- 0 0.0 1.0 102 193
+ 1.18006 1 0 ack 40 ------- 0 1.0 0.0 102 213
- 1.18006 1 0 ack 40 ------- 0 1.0 0.0 102 213
r 1.18058 0 1 tcp 1040 ------- 0 0.0 1.0 103 194
+ 1.18058 1 0 ack 40 ------- 0 1.0 0.0 103 214
- 1.18058 1 0 ack 40 ------- 0 1.0 0.0 103 214
r 1.1811 0 1 tcp 1040 ------- 0 0.0 1.0 104 195
+ 1.1811 1 0 ack 40 ------- 0 1.0 0.0 104 215
- 1.1811 1 0 ack 40 ------- 0 1.0 0.0 104 215
r 1.18162 0 1 tcp 1040 ------- 0 0.0 1.0 105 196
+ 1.18162 1 0 ack 40 ------- 0 1.0 0.0 105 216
- 1.18162 1 0 ack 40 ------- 0 1.0 0.0 105 216
r 1.18214 0 1 tcp 1040 ------- 0 0.0 1.0 106 197
+ 1.18214 1 0 ack 40 ------- 0 1.0 0.0 106 217
- 1.18214 1 0 ack 40 ------- 0 1.0 0.0 106 217
r 1.18266 0 1 tcp 1040 ------- 0 0.0 1.0 107 198
+ 1.18266 1 0 ack 40 ------- 0 1.0 0.0 107 218
- 1.18266 1 0 ack 40 ------- 0 1.0 0.0 107 218
r 1.18318 0 1 tcp 1040 ------- 0 0.0 1.0 108 199
+ 1.18318 1 0 ack 40 ------- 0 1.0 0.0 108 219
- 1.18318 1 0 ack 40 ------- 0 1.0 0.0 108 219
r 1.1837 0 1 tcp 1040 ------- 0 0.0 1.0 109 200
+ 1.1837 1 0 ack 40 ------- 0 1.0 0.0 109 220
- 1.1837 1 0 ack 40 ------- 0 1.0 0.0 109 220
r 1.18422 0 1 tcp 1040 ------- 0 0.0 1.0 110 201
+ 1.18422 1 0 ack 40 ------- 0 1.0 0.0 110 221
- 1.18422 1 0 ack 40 ------- 0 1.0 0.0 110 221
r 1.18436 1 0 ack 40 ------- 0 1.0 0.0 91 202
+ 1.18436 0 1 tcp 1040 ------- 0 0.0 1.0 111 222